
     Program PWSCF v.6.0 (svn rev. 13079) starts on 21Jun2018 at 12:33: 2 

     This program is part of the open-source Quantum ESPRESSO suite
     for quantum simulation of materials; please cite
         "P. Giannozzi et al., J. Phys.:Condens. Matter 21 395502 (2009);
          URL http://www.quantum-espresso.org", 
     in publications or presentations arising from this work. More details at
     http://www.quantum-espresso.org/quote

     Serial version
     Reading input from /Users/simonbatzner1/Desktop/Research/Research_Code/ML-electron-density/AIMD/step_Al_45/pwscf.in
Warning: card &IONS ignored
Warning: card / ignored
Warning: card &CELL ignored
Warning: card / ignored

     Current dimensions of program PWSCF are:
     Max number of different atomic species (ntypx) = 10
     Max number of k-points (npk) =  40000
     Max angular momentum in pseudopotentials (lmaxx) =  3
     Message from routine setup:
     no reason to have ecutrho>4*ecutwfc

     G-vector sticks info
     --------------------
     sticks:   dense  smooth     PW     G-vecs:    dense   smooth      PW
     Sum         185      97     21                 1935      739      81



     bravais-lattice index     =            0
     lattice parameter (alat)  =       7.7479  a.u.
     unit-cell volume          =     465.1020 (a.u.)^3
     number of atoms/cell      =            4
     number of atomic types    =            1
     number of electrons       =        12.00
     number of Kohn-Sham states=           10
     kinetic-energy cutoff     =       5.0000  Ry
     charge density cutoff     =      40.0000  Ry
     convergence threshold     =      1.0E-07
     mixing beta               =       0.5000
     number of iterations used =            8  plain     mixing
     Exchange-correlation      =  SLA  PZ   NOGX NOGC ( 1  1  0  0 0 0)

     celldm(1)=   7.747877  celldm(2)=   0.000000  celldm(3)=   0.000000
     celldm(4)=   0.000000  celldm(5)=   0.000000  celldm(6)=   0.000000

     crystal axes: (cart. coord. in units of alat)
               a(1) = (   1.000000   0.000000   0.000000 )  
               a(2) = (   0.000000   1.000000   0.000000 )  
               a(3) = (   0.000000   0.000000   1.000000 )  

     reciprocal axes: (cart. coord. in units 2 pi/alat)
               b(1) = (  1.000000  0.000000  0.000000 )  
               b(2) = (  0.000000  1.000000  0.000000 )  
               b(3) = (  0.000000  0.000000  1.000000 )  


     PseudoPot. # 1 for Al read from file:
     /Users/simonbatzner1/QE/qe-6.0/pseudo/Al.pz-vbc.UPF
     MD5 check sum: 614279c88ff8d45c90147292d03ed420
     Pseudo is Norm-conserving, Zval =  3.0
     Generated by new atomic code, or converted to UPF format
     Using radial grid of  171 points,  2 beta functions with: 
                l(1) =   0
                l(2) =   1

     atomic species   valence    mass     pseudopotential
        Al             3.00    26.98154     Al( 1.00)

     No symmetry found



   Cartesian axes

     site n.     atom                  positions (alat units)
         1           Al  tau(   1) = (  -0.0282683  -0.0289000  -0.0542000  )
         2           Al  tau(   2) = (  -0.0040415   0.4744732   0.5375902  )
         3           Al  tau(   3) = (   0.5660878  -0.0350829   0.5029902  )
         4           Al  tau(   4) = (   0.5249976   0.5521488  -0.0128976  )

     number of k points=     1  Methfessel-Paxton smearing, width (Ry)=  0.0200
                       cart. coord. in units 2pi/alat
        k(    1) = (   0.0000000   0.0000000   0.0000000), wk =   2.0000000

     Dense  grid:     1935 G-vectors     FFT dimensions: (  15,  15,  15)

     Smooth grid:      739 G-vectors     FFT dimensions: (  12,  12,  12)

     Estimated max dynamical RAM per process >       1.14Mb

     Initial potential from superposition of free atoms

     starting charge   11.99177, renormalised to   12.00000
     Starting wfc are   16 randomized atomic wfcs

     total cpu time spent up to now is        0.0 secs

     Self-consistent Calculation

     iteration #  1     ecut=     5.00 Ry     beta=0.50
     Davidson diagonalization with overlap
     ethr =  1.00E-02,  avg # of iterations =  3.0

     total cpu time spent up to now is        0.0 secs

     total energy              =     -15.84832431 Ry
     Harris-Foulkes estimate   =     -15.94381853 Ry
     estimated scf accuracy    <       0.22101019 Ry

     iteration #  2     ecut=     5.00 Ry     beta=0.50
     Davidson diagonalization with overlap
     ethr =  1.84E-03,  avg # of iterations =  2.0

     total cpu time spent up to now is        0.0 secs

     total energy              =     -15.88413629 Ry
     Harris-Foulkes estimate   =     -15.91705571 Ry
     estimated scf accuracy    <       0.11261458 Ry

     iteration #  3     ecut=     5.00 Ry     beta=0.50
     Davidson diagonalization with overlap
     ethr =  9.38E-04,  avg # of iterations =  1.0

     total cpu time spent up to now is        0.0 secs

     total energy              =     -15.89884895 Ry
     Harris-Foulkes estimate   =     -15.90230840 Ry
     estimated scf accuracy    <       0.01749076 Ry

     iteration #  4     ecut=     5.00 Ry     beta=0.50
     Davidson diagonalization with overlap
     ethr =  1.46E-04,  avg # of iterations =  1.0

     total cpu time spent up to now is        0.0 secs

     total energy              =     -15.90082119 Ry
     Harris-Foulkes estimate   =     -15.90096587 Ry
     estimated scf accuracy    <       0.00219179 Ry

     iteration #  5     ecut=     5.00 Ry     beta=0.50
     Davidson diagonalization with overlap
     ethr =  1.83E-05,  avg # of iterations =  6.0

     total cpu time spent up to now is        0.0 secs

     total energy              =     -15.90095000 Ry
     Harris-Foulkes estimate   =     -15.90105683 Ry
     estimated scf accuracy    <       0.00042798 Ry

     iteration #  6     ecut=     5.00 Ry     beta=0.50
     Davidson diagonalization with overlap
     ethr =  3.57E-06,  avg # of iterations =  1.0

     total cpu time spent up to now is        0.0 secs

     total energy              =     -15.90097976 Ry
     Harris-Foulkes estimate   =     -15.90099875 Ry
     estimated scf accuracy    <       0.00005779 Ry

     iteration #  7     ecut=     5.00 Ry     beta=0.50
     Davidson diagonalization with overlap
     ethr =  4.82E-07,  avg # of iterations =  2.0

     total cpu time spent up to now is        0.0 secs

     total energy              =     -15.90098996 Ry
     Harris-Foulkes estimate   =     -15.90099071 Ry
     estimated scf accuracy    <       0.00000375 Ry

     iteration #  8     ecut=     5.00 Ry     beta=0.50
     Davidson diagonalization with overlap
     ethr =  3.13E-08,  avg # of iterations =  2.0

     total cpu time spent up to now is        0.0 secs

     total energy              =     -15.90099039 Ry
     Harris-Foulkes estimate   =     -15.90099046 Ry
     estimated scf accuracy    <       0.00000041 Ry

     iteration #  9     ecut=     5.00 Ry     beta=0.50
     Davidson diagonalization with overlap
     ethr =  3.45E-09,  avg # of iterations =  2.0

     total cpu time spent up to now is        0.0 secs

     total energy              =     -15.90099045 Ry
     Harris-Foulkes estimate   =     -15.90099051 Ry
     estimated scf accuracy    <       0.00000031 Ry

     iteration # 10     ecut=     5.00 Ry     beta=0.50
     Davidson diagonalization with overlap
     ethr =  2.59E-09,  avg # of iterations =  1.0

     total cpu time spent up to now is        0.1 secs

     End of self-consistent calculation

          k = 0.0000 0.0000 0.0000 (    81 PWs)   bands (ev):

    -3.0034   4.4092   4.4408   4.6163   6.2129   6.2422   6.2716  12.1271
    12.3069  12.3588

     the Fermi energy is     6.2978 ev

!    total energy              =     -15.90099047 Ry
     Harris-Foulkes estimate   =     -15.90099049 Ry
     estimated scf accuracy    <       0.00000004 Ry

     The total energy is the sum of the following terms:

     one-electron contribution =      11.11553053 Ry
     hartree contribution      =       0.29135606 Ry
     xc contribution           =      -6.39031399 Ry
     ewald contribution        =     -20.90299159 Ry
     smearing contrib. (-TS)   =      -0.01457147 Ry

     convergence has been achieved in  10 iterations

     Forces acting on atoms (Ry/au):

     atom    1 type  1   force =     0.02790772    0.00927439    0.02312287
     atom    2 type  1   force =     0.00730722   -0.00168992   -0.00903356
     atom    3 type  1   force =    -0.02040473    0.00496075   -0.02108308
     atom    4 type  1   force =    -0.01481020   -0.01254522    0.00699378

     Total force =     0.053371     Total SCF correction =     0.000102

     Writing output data file Al.save

     init_run     :      0.01s CPU      0.01s WALL (       1 calls)
     electrons    :      0.03s CPU      0.04s WALL (       1 calls)
     forces       :      0.00s CPU      0.00s WALL (       1 calls)

     Called by init_run:
     wfcinit      :      0.00s CPU      0.00s WALL (       1 calls)
     potinit      :      0.00s CPU      0.00s WALL (       1 calls)

     Called by electrons:
     c_bands      :      0.02s CPU      0.02s WALL (      10 calls)
     sum_band     :      0.00s CPU      0.00s WALL (      10 calls)
     v_of_rho     :      0.00s CPU      0.00s WALL (      11 calls)
     mix_rho      :      0.00s CPU      0.00s WALL (      10 calls)

     Called by c_bands:
     init_us_2    :      0.00s CPU      0.00s WALL (      21 calls)
     cegterg      :      0.02s CPU      0.02s WALL (      10 calls)

     Called by sum_band:

     Called by *egterg:
     h_psi        :      0.01s CPU      0.01s WALL (      32 calls)
     g_psi        :      0.00s CPU      0.00s WALL (      21 calls)
     cdiaghg      :      0.01s CPU      0.01s WALL (      31 calls)

     Called by h_psi:
     h_psi:pot    :      0.01s CPU      0.01s WALL (      32 calls)
     h_psi:calbec :      0.00s CPU      0.00s WALL (      32 calls)
     vloc_psi     :      0.01s CPU      0.01s WALL (      32 calls)
     add_vuspsi   :      0.00s CPU      0.00s WALL (      32 calls)

     General routines
     calbec       :      0.00s CPU      0.00s WALL (      36 calls)
     fft          :      0.00s CPU      0.00s WALL (      75 calls)
     ffts         :      0.00s CPU      0.00s WALL (      21 calls)
     fftw         :      0.01s CPU      0.01s WALL (     594 calls)
     interpolate  :      0.00s CPU      0.00s WALL (      21 calls)
     davcio       :      0.00s CPU      0.00s WALL (       1 calls)


     PWSCF        :     0.09s CPU         0.10s WALL


   This run was terminated on:  12:33: 2  21Jun2018            

=------------------------------------------------------------------------------=
   JOB DONE.
=------------------------------------------------------------------------------=
