LAMMPS (11 Aug 2017)
Reading data file ...
  orthogonal box = (0 0 0) to (12.27 12.27 12.27)
  1 by 1 by 1 MPI processor grid
  reading atoms ...
  107 atoms
Reading potential file /usr/local/Cellar/lammps/2017-08-11_4/bin/pots/Ag_u3.eam with DATE: 2007-06-11
Neighbor list info ...
  update every 1 steps, delay 10 steps, check yes
  max neighbors/atom: 2000, page size: 100000
  master list distance cutoff = 7.55
  ghost atom cutoff = 7.55
  binsize = 3.775, bins = 4 4 4
  2 neighbor lists, perpetual/occasional/extra = 1 1 0
  (1) pair eam, perpetual
      attributes: half, newton on
      pair build: half/bin/atomonly/newton
      stencil: half/bin/3d/newton
      bin: standard
  (2) compute rdf, occasional, copy from (1)
      attributes: half, newton on
      pair build: copy
      stencil: none
      bin: none
Setting up Verlet run ...
  Unit style    : metal
  Current step  : 0
  Time step     : 0.001
Per MPI rank memory allocation (min/avg/max) = 3.349 | 3.349 | 3.349 Mbytes
Step PotEng KinEng TotEng Temp Press Density c_msdall[4] 
       0   -303.98319    12.331418   -291.65177          900    5453.4898     10.37528            0 
     100   -298.04033    6.3890343   -291.65129    466.29925    22520.734     10.37528  0.039124397 
Loop time of 0.0293748 on 1 procs for 100 steps with 107 atoms

Performance: 294.129 ns/day, 0.082 hours/ns, 3404.274 timesteps/s
97.5% CPU use with 1 MPI tasks x no OpenMP threads

MPI task timing breakdown:
Section |  min time  |  avg time  |  max time  |%varavg| %total
---------------------------------------------------------------
Pair    | 0.018527   | 0.018527   | 0.018527   |   0.0 | 63.07
Neigh   | 0          | 0          | 0          |   0.0 |  0.00
Comm    | 0.00045967 | 0.00045967 | 0.00045967 |   0.0 |  1.56
Output  | 1.1206e-05 | 1.1206e-05 | 1.1206e-05 |   0.0 |  0.04
Modify  | 0.010234   | 0.010234   | 0.010234   |   0.0 | 34.84
Other   |            | 0.0001426  |            |       |  0.49

Nlocal:    107 ave 107 max 107 min
Histogram: 1 0 0 0 0 0 0 0 0 0
Nghost:    973 ave 973 max 973 min
Histogram: 1 0 0 0 0 0 0 0 0 0
Neighs:    4558 ave 4558 max 4558 min
Histogram: 1 0 0 0 0 0 0 0 0 0

Total # of neighbors = 4558
Ave neighs/atom = 42.5981
Neighbor list builds = 0
Dangerous builds = 0
Total wall time: 0:00:00
