LAMMPS (11 Aug 2017)

# ---------- Initialize simulation ---------------------
units metal
atom_style atomic
dimension  3
boundary   p p p
read_data /Users/simonbatzner1/Desktop/Research/Research_Code/ML-electron-density/EAM/lammps.data
  orthogonal box = (0 0 0) to (95.4594 82.6703 96.8442)
  1 by 1 by 1 MPI processor grid
  reading atoms ...
  27001 atoms
pair_style eam
pair_coeff * * /usr/local/Cellar/lammps/2017-08-11_4/bin/pots/Pd_u3.eam
Reading potential file /usr/local/Cellar/lammps/2017-08-11_4/bin/pots/Pd_u3.eam with DATE: 2007-06-11
velocity  all create 900 87287 dist gaussian

# ---------- Describe computed properties------------------
compute msdall all msd
thermo_style custom step pe ke etotal temp press density c_msdall[4]
thermo 100

# ---------- Specify ensemble  ---------------------
fix  1 all nve
#fix  1 all nvt temp 900 900 0.05

# --------- Compute RDF ---------------
compute rdfall all rdf 100 1 1
fix 2 all ave/time 1 2500 2500 c_rdfall[*] file /Users/simonbatzner1/Desktop/Research/Research_Code/ML-electron-density/EAM/lammps.rdf mode vector

# --------- Run -------------
timestep 0.001
run 10000
Neighbor list info ...
  update every 1 steps, delay 10 steps, check yes
  max neighbors/atom: 2000, page size: 100000
  master list distance cutoff = 7.3
  ghost atom cutoff = 7.3
  binsize = 3.65, bins = 27 23 27
  2 neighbor lists, perpetual/occasional/extra = 1 1 0
  (1) pair eam, perpetual
      attributes: half, newton on
      pair build: half/bin/atomonly/newton
      stencil: half/bin/3d/newton
      bin: standard
  (2) compute rdf, occasional, copy from (1)
      attributes: half, newton on
      pair build: copy
      stencil: none
      bin: none
Per MPI rank memory allocation (min/avg/max) = 14.23 | 14.23 | 14.23 Mbytes
Step PotEng KinEng TotEng Temp Press Density c_msdall[4] 
       0   -76201.512    3141.0215    -73060.49          900   -197308.63     6.242071            0 
     100   -78435.328    5374.6232   -73060.705    1539.9961    -120632.3     6.242071   0.27345778 
     200   -80478.621    7417.8649   -73060.757    2125.4482   -46280.724     6.242071   0.90177941 
     300   -81629.311    8568.5162   -73060.795    2455.1454    -34115.76     6.242071    1.7247562 
     400   -82485.434    9424.5931   -73060.841     2700.438     -21932.4     6.242071    2.8103774 
     500    -83075.53    10014.666   -73060.864    2869.5122   -17167.205     6.242071    4.0798579 
     600   -83405.563    10344.691   -73060.872    2964.0746   -12583.591     6.242071    5.5115973 
     700   -83759.727    10698.835   -73060.891    3065.5479   -10185.637     6.242071    7.0713699 
     800   -84104.369    11043.448   -73060.922      3164.29   -7806.3409     6.242071    8.7700624 
     900   -84389.131    11328.204   -73060.928    3245.8814   -5603.0341     6.242071    10.587236 
    1000   -84579.151    11518.201    -73060.95    3300.3214   -3332.1955     6.242071    12.535351 
    1100   -84815.996     11755.03   -73060.966    3368.1803   -2236.7048     6.242071    14.590431 
    1200     -84871.8    11810.847   -73060.953    3384.1736   -620.88853     6.242071      16.7861 
    1300    -85048.49    11987.514   -73060.975    3434.7944   -117.39553     6.242071    19.090878 
    1400   -85142.671     12081.69   -73060.981    3461.7786    1036.7094     6.242071    21.551772 
    1500    -85299.89    12238.902   -73060.988    3506.8248    1878.2528     6.242071    24.117473 
    1600    -85485.54    12424.532   -73061.008    3560.0135    2300.7952     6.242071     26.77858 
    1700   -85535.273    12474.276   -73060.997    3574.2666    4169.0604     6.242071    29.559438 
    1800   -85618.304    12557.311   -73060.993    3598.0586    4843.8123     6.242071    32.455294 
    1900   -85642.965    12581.965       -73061    3605.1228    7024.9678     6.242071    35.456196 
    2000     -85810.4    12749.371   -73061.029    3653.0898    8502.3829     6.242071    38.494019 
    2100   -85906.036    12844.955   -73061.081    3680.4777    11852.196     6.242071    41.606319 
    2200   -86070.843    13009.749   -73061.094    3727.6962    14679.695     6.242071     44.68566 
    2300   -86099.239    13038.143   -73061.096    3735.8321    19024.767     6.242071    47.733549 
    2400   -86194.649    13133.549     -73061.1    3763.1688    23088.757     6.242071       50.596 
    2500   -86303.321    13242.191    -73061.13    3794.2981    26864.278     6.242071    53.296138 
    2600   -86367.292    13306.129   -73061.163    3812.6183    30560.935     6.242071    55.799469 
    2700   -86421.897    13360.721   -73061.176    3828.2605    34085.982     6.242071    57.979539 
    2800   -86517.599    13456.415   -73061.184    3855.6798    36387.162     6.242071    59.806514 
    2900   -86526.936    13465.747   -73061.189    3858.3538    37544.705     6.242071    61.226204 
    3000   -86512.201    13451.025   -73061.176    3854.1354    37065.021     6.242071    62.231159 
    3100   -86422.977    13361.789   -73061.188    3828.5666    35118.424     6.242071    62.895317 
    3200    -86503.91     13442.74    -73061.17    3851.7615    30850.418     6.242071    63.236504 
    3300   -86372.691    13311.541    -73061.15     3814.169    27456.086     6.242071    63.324339 
    3400   -86297.514     13236.39   -73061.124    3792.6359    22851.037     6.242071    63.178058 
    3500   -86173.906    13112.789   -73061.117    3757.2203    18614.794     6.242071    62.844729 
    3600   -86008.481    12947.401    -73061.08    3709.8315    13127.529     6.242071    62.426991 
    3700   -85898.054    12836.984    -73061.07    3678.1938    7948.5174     6.242071    61.969872 
    3800     -85696.9     12635.86   -73061.039    3620.5656    4144.9993     6.242071    61.538821 
    3900   -85521.007    12459.975   -73061.032    3570.1688    215.61899     6.242071    61.120676 
    4000   -85194.508    12133.519   -73060.989    3476.6291   -2855.1397     6.242071    60.774823 
    4100   -85044.766    11983.777   -73060.989    3433.7235   -6856.9166     6.242071    60.568277 
    4200   -84831.803    11770.829   -73060.973    3372.7074   -9765.1557     6.242071    60.519866 
    4300   -84653.919    11592.965   -73060.954    3321.7437   -13665.793     6.242071    60.566887 
    4400    -84387.72    11326.782   -73060.938    3245.4742   -15027.787     6.242071    60.691533 
    4500   -84212.745    11151.812   -73060.933    3195.3397   -16584.911     6.242071    61.004056 
    4600   -84026.758    10965.841   -73060.917    3142.0534    -18173.96     6.242071    61.443661 
    4700   -83964.479    10903.556   -73060.923    3124.2066   -19648.993     6.242071     62.01787 
    4800   -83878.319    10817.391   -73060.928    3099.5178   -20153.808     6.242071    62.726704 
    4900   -83750.698    10689.777   -73060.921    3062.9523   -19856.089     6.242071    63.534557 
    5000   -83702.418    10641.489   -73060.929    3049.1162   -20599.605     6.242071    64.475946 
    5100   -83677.014    10616.077   -73060.936    3041.8351    -19776.34     6.242071    65.505671 
    5200   -83670.098    10609.168    -73060.93    3039.8554    -19544.81     6.242071    66.588982 
    5300   -83679.156    10618.222   -73060.934    3042.4496   -19591.631     6.242071    67.769353 
    5400   -83734.458    10673.513   -73060.944    3058.2924   -18997.995     6.242071    68.988329 
    5500    -83739.92    10678.985   -73060.935    3059.8602   -18370.792     6.242071    70.282282 
    5600   -83784.851    10723.898   -73060.953    3072.7292   -16329.326     6.242071    71.640197 
    5700   -83901.274    10840.319   -73060.956    3106.0872   -14630.951     6.242071    72.987027 
    5800   -84022.959    10962.004   -73060.955    3140.9539   -14169.212     6.242071    74.443192 
    5900   -84098.484    11037.534   -73060.949    3162.5956   -13562.304     6.242071    75.928816 
    6000   -84209.635    11148.665    -73060.97    3194.4379   -11571.903     6.242071    77.481324 
    6100   -84303.583    11242.604   -73060.979    3221.3544   -10156.916     6.242071    79.058613 
    6200   -84392.113    11331.125   -73060.988    3246.7183    -9596.175     6.242071    80.700869 
    6300   -84500.241    11439.227   -73061.014    3277.6931   -7280.8235     6.242071     82.41896 
    6400   -84514.327    11453.327       -73061    3281.7331   -6033.7685     6.242071    84.129328 
    6500   -84656.248    11595.255   -73060.993    3322.3998   -5307.4791     6.242071    85.807626 
    6600   -84737.417    11676.407    -73061.01    3345.6523   -3380.2455     6.242071    87.610775 
    6700   -84829.862    11768.852    -73061.01    3372.1409   -2372.5014     6.242071    89.417379 
    6800   -84946.027    11885.004   -73061.023    3405.4219    -1714.028     6.242071    91.281229 
    6900   -85026.618      11965.6   -73061.018    3428.5153   -557.59557     6.242071     93.12077 
    7000   -85119.978     12058.94   -73061.038    3455.2599    95.742022     6.242071    95.001286 
    7100   -85164.728    12103.689   -73061.039    3468.0818    875.28809     6.242071     96.90883 
    7200   -85191.707    12130.668   -73061.039    3475.8122    2912.5691     6.242071    98.804779 
    7300   -85350.901     12289.83   -73061.071    3521.4172     3499.357     6.242071    100.72905 
    7400   -85345.324    12284.274    -73061.05    3519.8252    5113.8176     6.242071    102.59044 
    7500   -85348.051    12286.998   -73061.053    3520.6057    5862.6692     6.242071    104.46913 
    7600   -85349.206    12288.158   -73061.049     3520.938    7095.6012     6.242071    106.32398 
    7700   -85424.372    12363.314   -73061.058    3542.4726    6631.9781     6.242071    108.12625 
    7800   -85550.467    12489.377    -73061.09    3578.5936    7493.4013     6.242071     109.8332 
    7900   -85459.771      12398.7   -73061.071    3552.6119    9300.7413     6.242071    111.45807 
    8000   -85546.638    12485.554   -73061.084     3577.498    9939.9379     6.242071    113.20775 
    8100   -85529.984    12468.906   -73061.078    3572.7278    10453.253     6.242071    114.75139 
    8200   -85653.183    12592.074   -73061.109    3608.0194    9576.1035     6.242071    116.19335 
    8300   -85620.778    12559.687   -73061.091    3598.7395    10559.117     6.242071    117.52958 
    8400   -85610.107    12549.031   -73061.076    3595.6863     10854.57     6.242071    118.88435 
    8500   -85570.908    12509.831   -73061.078    3584.4541    9926.6756     6.242071     120.1509 
    8600   -85599.534    12538.471   -73061.063    3592.6604    9235.6952     6.242071    121.25666 
    8700   -85606.616    12545.542   -73061.075    3594.6864    9117.5481     6.242071    122.38517 
    8800   -85532.859    12471.789    -73061.07     3573.554    8175.2994     6.242071    123.42008 
    8900   -85503.427    12442.355   -73061.072    3565.1203    8002.7724     6.242071    124.40102 
    9000   -85463.891    12402.837   -73061.054    3553.7972    6940.4586     6.242071    125.40809 
    9100   -85372.941    12311.898   -73061.043    3527.7404    6069.1956     6.242071    126.38408 
    9200     -85340.6    12279.547   -73061.053    3518.4708    3906.2021     6.242071    127.32669 
    9300   -85294.884    12233.826   -73061.058    3505.3701    2779.2603     6.242071    128.13337 
    9400   -85249.395    12188.343   -73061.052    3492.3379    1541.9393     6.242071    128.93826 
    9500   -85264.441    12203.384   -73061.057    3496.6477   -910.78522     6.242071    129.64945 
    9600   -85080.897    12019.879   -73061.018    3444.0679   -959.25119     6.242071    130.47115 
    9700   -85038.324      11977.3   -73061.024    3431.8677    -2418.392     6.242071    131.30796 
    9800     -84930.8    11869.787   -73061.013    3401.0617   -3312.1078     6.242071    132.17782 
    9900   -84894.358    11833.349   -73061.009    3390.6211    -4460.645     6.242071    133.14534 
   10000   -84798.812    11737.829   -73060.983    3363.2517   -4385.7741     6.242071       134.06 
Loop time of 3987.25 on 1 procs for 10000 steps with 27001 atoms

Performance: 0.217 ns/day, 110.757 hours/ns, 2.508 timesteps/s
15.0% CPU use with 1 MPI tasks x no OpenMP threads

MPI task timing breakdown:
Section |  min time  |  avg time  |  max time  |%varavg| %total
---------------------------------------------------------------
Pair    | 398.37     | 398.37     | 398.37     |   0.0 |  9.99
Neigh   | 11.502     | 11.502     | 11.502     |   0.0 |  0.29
Comm    | 1.5205     | 1.5205     | 1.5205     |   0.0 |  0.04
Output  | 0.03328    | 0.03328    | 0.03328    |   0.0 |  0.00
Modify  | 3574.5     | 3574.5     | 3574.5     |   0.0 | 89.65
Other   |            | 1.347      |            |       |  0.03

Nlocal:    27001 ave 27001 max 27001 min
Histogram: 1 0 0 0 0 0 0 0 0 0
Nghost:    9591 ave 9591 max 9591 min
Histogram: 1 0 0 0 0 0 0 0 0 0
Neighs:    1.11485e+06 ave 1.11485e+06 max 1.11485e+06 min
Histogram: 1 0 0 0 0 0 0 0 0 0

Total # of neighbors = 1114854
Ave neighs/atom = 41.2894
Neighbor list builds = 248
Dangerous builds = 0
Total wall time: 1:06:27
