LAMMPS (11 Aug 2017)
Reading data file ...
  orthogonal box = (0 0 0) to (12.27 12.27 12.27)
  1 by 1 by 1 MPI processor grid
  reading atoms ...
  107 atoms
Reading potential file /usr/local/Cellar/lammps/2017-08-11_4/bin/pots/Ag_u3.eam with DATE: 2007-06-11
Neighbor list info ...
  update every 1 steps, delay 10 steps, check yes
  max neighbors/atom: 2000, page size: 100000
  master list distance cutoff = 7.55
  ghost atom cutoff = 7.55
  binsize = 3.775, bins = 4 4 4
  2 neighbor lists, perpetual/occasional/extra = 1 1 0
  (1) pair eam, perpetual
      attributes: half, newton on
      pair build: half/bin/atomonly/newton
      stencil: half/bin/3d/newton
      bin: standard
  (2) compute rdf, occasional, copy from (1)
      attributes: half, newton on
      pair build: copy
      stencil: none
      bin: none
Setting up Verlet run ...
  Unit style    : metal
  Current step  : 0
  Time step     : 0.001
Per MPI rank memory allocation (min/avg/max) = 3.349 | 3.349 | 3.349 Mbytes
Step PotEng KinEng TotEng Temp Press Density c_msdall[4] 
       0   -303.98319    12.331418   -291.65177          900    5453.4898     10.37528            0 
     100   -298.04033    6.3890343   -291.65129    466.29925    22520.734     10.37528  0.039124397 
     200   -299.53645    7.8852662   -291.65118     575.5007    17755.982     10.37528  0.023945541 
     300   -298.59583    6.9447649   -291.65107    506.85886    21560.724     10.37528  0.024137071 
     400   -297.87901    6.2280227   -291.65098    454.54793    23401.393     10.37528  0.031381604 
     500   -297.80418    6.1532823   -291.65089    449.09305    23905.573     10.37528  0.027086871 
     600   -296.79657    5.1458737   -291.65069    375.56803    26494.358     10.37528  0.030075692 
     700    -297.1284    5.4776313   -291.65077    399.78113    26875.857     10.37528  0.032309031 
     800   -297.48063    5.8298185   -291.65081    425.48527    24493.467     10.37528  0.029501593 
     900   -297.18772    5.5368922   -291.65082    404.10625    26166.561     10.37528  0.032158805 
    1000   -298.02693    6.3760063   -291.65093    465.34841    22675.958     10.37528  0.028097841 
    1100   -298.35474    6.7037549   -291.65098    489.26891     22583.34     10.37528  0.026072298 
    1200   -297.18848    5.5376581   -291.65083    404.16215    25326.018     10.37528   0.03208945 
    1300   -298.52832     6.877359   -291.65096    501.93929    21128.497     10.37528  0.026819436 
    1400   -298.00662    6.3556469   -291.65098    463.86249    23995.664     10.37528  0.031013161 
    1500   -298.15901    6.5080889   -291.65092    474.98837    21605.451     10.37528   0.02821014 
    1600   -297.76227    6.1114017   -291.65087    446.03642    23497.162     10.37528  0.031673774 
    1700   -297.99692    6.3460325   -291.65089    463.16079     22615.27     10.37528  0.030731406 
    1800    -297.8918    6.2408584   -291.65094    455.48473    23234.778     10.37528  0.031301417 
    1900   -297.79652    6.1456779   -291.65084    448.53805    23978.884     10.37528  0.028344335 
    2000    -296.9544     5.303634   -291.65076    387.08206    25832.923     10.37528   0.03395553 
    2100   -297.98157    6.3307461   -291.65082    462.04512    22940.432     10.37528  0.026885852 
    2200   -296.89947    5.2487519   -291.65072    383.07652    26619.958     10.37528  0.030471432 
    2300   -297.16376    5.5129816   -291.65078    402.36115    26203.973     10.37528  0.031630526 
    2400    -297.9482     6.297279   -291.65092    459.60256    22851.192     10.37528  0.029872775 
    2500   -298.27371    6.6227497   -291.65096    483.35681    22979.463     10.37528  0.026741725 
    2600   -298.02173    6.3708058   -291.65092    464.96885    23058.542     10.37528  0.028328948 
    2700   -297.60675    5.9558937   -291.65086    434.68678    24087.059     10.37528  0.030797375 
    2800   -297.59989    5.9490312   -291.65086    434.18593    24670.061     10.37528   0.02881328 
    2900   -298.37308    6.7221834    -291.6509    490.61391    21437.173     10.37528  0.024353629 
    3000   -297.22655    5.5757388   -291.65082    406.94144    26527.933     10.37528  0.032194269 
    3100   -297.59666    5.9458454   -291.65082    433.95341    23685.604     10.37528  0.028587192 
    3200   -297.40424    5.7534084   -291.65083    419.90853    24691.785     10.37528  0.030477493 
    3300   -297.75358    6.1027638   -291.65081    445.40599     23934.95     10.37528  0.030246131 
    3400   -297.88269    6.2317567   -291.65094    454.82046    23580.518     10.37528  0.031298541 
    3500   -297.99791    6.3470393   -291.65087    463.23427    22590.732     10.37528  0.027327379 
    3600   -297.26732    5.6164995   -291.65082    409.91633    25264.022     10.37528  0.032588075 
    3700   -297.73739    6.0865232   -291.65087    444.22068    23562.447     10.37528  0.032040834 
    3800   -298.32813     6.677218   -291.65091    487.33214    22334.314     10.37528  0.026765908 
    3900   -297.43738    5.7864966   -291.65088    422.32345    24939.182     10.37528  0.035584889 
    4000   -298.01343    6.3625078   -291.65092    464.36323    22167.022     10.37528  0.032954028 
    4100   -297.91787    6.2669267   -291.65094    457.38731    24431.341     10.37528  0.029288204 
    4200   -298.59957    6.9485494   -291.65102    507.13507    21028.631     10.37528  0.030106917 
    4300   -297.97359    6.3226375   -291.65095    461.45332    22705.463     10.37528  0.032365927 
    4400     -297.496    5.8451646   -291.65083    426.60529    24254.462     10.37528  0.029172165 
    4500   -297.79723    6.1463745   -291.65085    448.58889    23614.414     10.37528  0.030527471 
    4600   -298.33742    6.6864583   -291.65096    488.00653    21494.244     10.37528  0.029382152 
    4700    -297.6644    6.0135611   -291.65084     438.8956    23898.467     10.37528  0.033153811 
    4800   -298.01682    6.3659083   -291.65091    464.61141    22176.824     10.37528  0.033019413 
    4900   -297.76367    6.1128107   -291.65086    446.13926    23671.179     10.37528  0.033156541 
    5000   -298.34582    6.6948686   -291.65095    488.62036    22385.123     10.37528  0.029164358 
    5100   -298.03663    6.3857388   -291.65089    466.05873    22130.106     10.37528  0.027280958 
    5200    -297.4228    5.7720202   -291.65078     421.2669    25372.536     10.37528  0.030286943 
    5300   -297.64394     5.993079   -291.65086    437.40072    24147.132     10.37528  0.032352053 
    5400    -298.2199    6.5690247   -291.65088    479.43572    22593.784     10.37528  0.025702083 
    5500   -297.63728    5.9864025   -291.65088    436.91344    23768.424     10.37528  0.029983992 
    5600   -297.58138    5.9305499   -291.65083    432.83708    24179.094     10.37528  0.032639087 
    5700    -298.0146    6.3637223   -291.65088    464.45187     23780.64     10.37528  0.028521154 
    5800   -297.59035    5.9395051   -291.65085    433.49067    23482.189     10.37528  0.030328813 
    5900   -298.24791      6.59697   -291.65094    481.47529    21701.794     10.37528  0.029830441 
    6000   -297.44647    5.7956912   -291.65078    422.99451    24617.332     10.37528  0.031980994 
    6100   -297.76623     6.115421   -291.65081    446.32977    24252.227     10.37528  0.028268116 
    6200   -297.76446    6.1135804   -291.65088    446.19544    22819.082     10.37528  0.032741826 
    6300   -297.62582    5.9749836   -291.65084    436.08005    24507.364     10.37528  0.033614754 
    6400   -298.41166    6.7607379   -291.65092    493.42778    21583.587     10.37528  0.027698174 
    6500   -297.55999    5.9091224   -291.65086    431.27321    23320.932     10.37528  0.034087173 
    6600    -298.1723    6.5213891   -291.65091    475.95907    22113.486     10.37528  0.030852295 
    6700   -298.34815    6.6972024   -291.65095    488.79069    21214.452     10.37528  0.030475064 
    6800   -297.89258    6.2416761   -291.65091    455.54441    23316.448     10.37528  0.031878844 
    6900   -298.08512    6.4342179    -291.6509    469.59694    22516.231     10.37528  0.030869439 
    7000   -297.42405    5.7732524    -291.6508    421.35683    24073.538     10.37528  0.033710957 
    7100   -298.02824    6.3773361    -291.6509    465.44546     22075.97     10.37528  0.029852397 
    7200   -298.29805    6.6470432   -291.65101    485.12985    22622.605     10.37528  0.031841982 
    7300   -297.79278    6.1419253   -291.65085    448.26417    23253.518     10.37528  0.030457595 
    7400   -298.29511    6.6441342   -291.65097    484.91753    21644.724     10.37528  0.028888747 
    7500   -297.76592    6.1150172    -291.6509     446.3003    22060.659     10.37528  0.035674203 
    7600   -298.34669    6.6957958    -291.6509    488.68803    22547.958     10.37528  0.028411683 
    7700   -298.09097    6.4400251   -291.65095    470.02077    22927.085     10.37528  0.029093646 
    7800   -297.19367    5.5428325   -291.65084     404.5398     24127.65     10.37528   0.03489538 
    7900   -298.51844     6.867499   -291.65094    501.21966    21620.581     10.37528  0.026713577 
    8000   -297.98244    6.3315285   -291.65092    462.10223    23922.521     10.37528  0.029112414 
    8100   -297.92918    6.2783443   -291.65084    458.22062     23291.98     10.37528  0.027729297 
    8200   -297.09688    5.4460829   -291.65079    397.47859     24797.15     10.37528  0.032513347 
    8300   -298.39703    6.7460297     -291.651    492.35431    22502.016     10.37528  0.025793299 
    8400   -298.01288    6.3619223   -291.65096     464.3205    23037.247     10.37528  0.028176134 
    8500   -297.83928    6.1884149   -291.65086    451.65718    23662.599     10.37528  0.029221622 
    8600   -297.69673    6.0458735   -291.65086    441.25389    23225.861     10.37528  0.028025413 
    8700   -297.51881    5.8680111    -291.6508    428.27273    24768.807     10.37528  0.029702764 
    8800   -297.57521    5.9243234   -291.65089    432.38265    24992.879     10.37528   0.03220778 
    8900   -298.12129    6.4703878    -291.6509    472.23678    22520.408     10.37528   0.02623243 
    9000   -297.85242    6.2015165   -291.65091    452.61339    23193.864     10.37528  0.029536921 
    9100   -297.76043    6.1095577   -291.65087    445.90184    23824.392     10.37528  0.031322212 
    9200   -297.90042    6.2494791   -291.65094    456.11391    23870.127     10.37528  0.028428031 
    9300   -297.49936    5.8485475   -291.65081     426.8522    23959.565     10.37528  0.031768651 
    9400   -297.79023    6.1393165   -291.65092    448.07377    23328.709     10.37528  0.034152639 
    9500   -297.96861    6.3177247   -291.65088    461.09476    22813.866     10.37528  0.032455103 
    9600   -297.81807    6.1671217   -291.65095    450.10311    23907.322     10.37528  0.032648026 
    9700   -298.28993    6.6389897   -291.65094    484.54207    21739.679     10.37528  0.028156969 
    9800   -297.82109    6.1701194   -291.65097     450.3219     22728.12     10.37528  0.032653009 
    9900   -298.35111     6.700159   -291.65095    489.00647     22201.46     10.37528  0.029449949 
   10000   -298.19242    6.5414423   -291.65098    477.42264    22713.185     10.37528  0.028002352 
Loop time of 3.01077 on 1 procs for 10000 steps with 107 atoms

Performance: 286.970 ns/day, 0.084 hours/ns, 3321.412 timesteps/s
98.0% CPU use with 1 MPI tasks x no OpenMP threads

MPI task timing breakdown:
Section |  min time  |  avg time  |  max time  |%varavg| %total
---------------------------------------------------------------
Pair    | 1.9635     | 1.9635     | 1.9635     |   0.0 | 65.22
Neigh   | 0          | 0          | 0          |   0.0 |  0.00
Comm    | 0.048987   | 0.048987   | 0.048987   |   0.0 |  1.63
Output  | 0.0013049  | 0.0013049  | 0.0013049  |   0.0 |  0.04
Modify  | 0.98196    | 0.98196    | 0.98196    |   0.0 | 32.61
Other   |            | 0.01504    |            |       |  0.50

Nlocal:    107 ave 107 max 107 min
Histogram: 1 0 0 0 0 0 0 0 0 0
Nghost:    973 ave 973 max 973 min
Histogram: 1 0 0 0 0 0 0 0 0 0
Neighs:    4558 ave 4558 max 4558 min
Histogram: 1 0 0 0 0 0 0 0 0 0

Total # of neighbors = 4558
Ave neighs/atom = 42.5981
Neighbor list builds = 0
Dangerous builds = 0
Total wall time: 0:00:03
