LAMMPS (11 Aug 2017)
Reading data file ...
  orthogonal box = (0 0 0) to (20.45 20.45 20.45)
  1 by 1 by 1 MPI processor grid
  reading atoms ...
  499 atoms
Reading potential file /usr/local/Cellar/lammps/2017-08-11_4/bin/pots/Ag_u3.eam with DATE: 2007-06-11
Neighbor list info ...
  update every 1 steps, delay 10 steps, check yes
  max neighbors/atom: 2000, page size: 100000
  master list distance cutoff = 7.55
  ghost atom cutoff = 7.55
  binsize = 3.775, bins = 6 6 6
  2 neighbor lists, perpetual/occasional/extra = 1 1 0
  (1) pair eam, perpetual
      attributes: half, newton on
      pair build: half/bin/atomonly/newton
      stencil: half/bin/3d/newton
      bin: standard
  (2) compute rdf, occasional, copy from (1)
      attributes: half, newton on
      pair build: copy
      stencil: none
      bin: none
Setting up Verlet run ...
  Unit style    : metal
  Current step  : 0
  Time step     : 0.001
Per MPI rank memory allocation (min/avg/max) = 3.404 | 3.404 | 3.404 Mbytes
Step PotEng KinEng TotEng Temp Press Density c_msdall[4] 
       0    -1421.184    83.683018    -1337.501         1300    10084.844    10.451301            0 
     100   -1371.5828    50.199337   -1321.3834    779.83729    42219.555    10.451301  0.071799737 
     200   -1358.2762    74.931928   -1283.3443    1164.0535    55669.336    10.451301  0.088425024 
     300   -1335.4653    87.249898   -1248.2154    1355.4108    73369.862    10.451301   0.12309113 
     400   -1326.7816    86.408399   -1240.3732    1342.3383     78847.71    10.451301   0.14244619 
     500   -1337.1938    85.974617   -1251.2192    1335.5996    71574.773    10.451301   0.12341177 
     600   -1343.0262    82.494764   -1260.5315    1281.5407    67843.478    10.451301  0.099439653 
     700   -1341.7495    84.385688   -1257.3638    1310.9158    68466.372    10.451301  0.095783578 
     800   -1335.8646    84.420438   -1251.4441    1311.4557    73037.889    10.451301   0.10623525 
     900   -1336.6019    81.763295   -1254.8386    1270.1775    71589.793    10.451301   0.11754792 
    1000   -1339.4458    85.833603   -1253.6122    1333.4089    70704.192    10.451301   0.12121314 
    1100   -1336.8487    87.866195   -1248.9825    1364.9849    71852.301    10.451301   0.12051139 
    1200   -1337.9824     85.16301   -1252.8194    1322.9914    71928.758    10.451301     0.110447 
    1300   -1340.4989    82.893777   -1257.6051    1287.7393    69115.806    10.451301   0.10143496 
    1400    -1342.045    86.072925    -1255.972    1337.1268    69452.585    10.451301  0.099433175 
    1500   -1337.1366    86.486054   -1250.6506    1343.5446    72174.243    10.451301   0.11206166 
    1600   -1333.3817    86.719881   -1246.6618    1347.1771    74185.548    10.451301   0.11573794 
    1700   -1337.5752    82.430795   -1255.1444     1280.547    71055.022    10.451301   0.10765237 
    1800   -1342.2597    81.135896   -1261.1238    1260.4309    68112.589    10.451301   0.10583379 
    1900   -1338.3063     84.21538    -1254.091    1308.2701    71155.573    10.451301   0.11557437 
    2000   -1335.3774    83.547087   -1251.8303    1297.8883    72157.369    10.451301   0.12219963 
    2100    -1339.452    83.712994    -1255.739    1300.4657    70411.309    10.451301   0.11783572 
    2200   -1343.1293    80.951489   -1262.1779    1257.5662    67200.289    10.451301    0.1074821 
    2300   -1339.7028     85.56136   -1254.1414    1329.1797    70147.757    10.451301    0.1137442 
    2400   -1334.6181    79.463043    -1255.155    1234.4435    72910.517    10.451301   0.13936101 
    2500   -1328.5086    84.550434   -1243.9582    1313.4751     77449.53    10.451301   0.14746824 
    2600    -1335.037    84.391991    -1250.645    1311.0138    72902.058    10.451301   0.13610017 
    2700   -1339.7738    80.856393   -1258.9174    1256.0889    69544.356    10.451301   0.12034424 
    2800   -1338.9477    83.608514   -1255.3392    1298.8426    70459.735    10.451301   0.11928398 
    2900   -1337.3848    80.097388   -1257.2874    1244.2979    71462.521    10.451301   0.11925928 
    3000    -1336.428    90.063545   -1246.3645    1399.1203    73012.391    10.451301   0.11912863 
    3100   -1337.6114    82.867745   -1254.7437    1287.3349    70860.532    10.451301   0.12499445 
    3200    -1340.884    84.808798   -1256.0752    1317.4888    68880.522    10.451301   0.12281136 
    3300   -1338.1135    84.292118   -1253.8214    1309.4623     70629.16    10.451301   0.13201777 
    3400   -1336.5388    84.279333   -1252.2594    1309.2636    72702.801    10.451301   0.13591319 
    3500   -1332.5196    82.518096   -1250.0015    1281.9032    74499.252    10.451301   0.13119638 
    3600   -1339.5143    81.631735   -1257.8826    1268.1337    70275.644    10.451301   0.12630691 
    3700   -1344.3021    78.859559   -1265.4426    1225.0685    66391.141    10.451301   0.11762276 
    3800    -1338.305    84.386105   -1253.9189    1310.9223    70967.933    10.451301   0.12486238 
    3900   -1337.6452    84.600122    -1253.045     1314.247    71789.362    10.451301   0.12344043 
    4000   -1338.6365    79.900935   -1258.7356     1241.246    70513.754    10.451301   0.12146469 
    4100   -1338.0174    83.989007   -1254.0284    1304.7535    71239.176    10.451301   0.11837809 
    4200   -1334.8023    85.950966   -1248.8513    1335.2321    73686.219    10.451301   0.12928177 
    4300   -1335.0533    84.022008   -1251.0313    1305.2662    73066.015    10.451301    0.1344365 
    4400   -1340.6021    82.497448   -1258.1047    1281.5824    69575.971    10.451301   0.12463618 
    4500   -1344.5396    83.767631   -1260.7719    1301.3144    66690.939    10.451301   0.11962546 
    4600   -1334.2977    84.356522   -1249.9411    1310.4628    73088.472    10.451301   0.12826836 
    4700   -1333.1833    79.286215   -1253.8971    1231.6965    74714.323    10.451301   0.13602925 
    4800    -1331.168    88.421107   -1242.7469    1373.6053    76812.291    10.451301   0.13144382 
    4900    -1337.685    86.004682   -1251.6804    1336.0666    71459.081    10.451301   0.13282191 
    5000   -1337.1691    83.513079   -1253.6561      1297.36    71430.584    10.451301   0.14020112 
    5100   -1332.3453    85.141517   -1247.2038    1322.6575    74736.629    10.451301   0.13400707 
    5200   -1338.3751    86.397592   -1251.9776    1342.1704    71263.036    10.451301   0.12389583 
    5300   -1336.5595    82.570564   -1253.9889    1282.7182    71577.887    10.451301   0.13091721 
    5400   -1333.7451    85.098401   -1248.6467    1321.9877    73701.913    10.451301   0.12490247 
    5500   -1343.6806    84.639686   -1259.0409    1314.8617    67071.369    10.451301   0.11953448 
    5600   -1339.7419    83.590225   -1256.1517    1298.5585    69897.629    10.451301   0.12079975 
    5700   -1337.3746    86.214213   -1251.1604    1339.3216    71328.543    10.451301   0.12102832 
    5800   -1342.4471    83.503802   -1258.9433    1297.2159    67662.556    10.451301    0.1165402 
    5900   -1343.3744    83.299274   -1260.0751    1294.0386    67144.106    10.451301   0.10899571 
    6000   -1337.4114    80.970748   -1256.4406    1257.8654     71336.24    10.451301   0.12351816 
    6100   -1329.9961    84.004476   -1245.9917    1304.9938    76935.465    10.451301   0.13968477 
    6200   -1336.7458    85.050732   -1251.6951    1321.2472    72207.818    10.451301   0.13411906 
    6300   -1340.1039    83.759351   -1256.3445    1301.1858    69941.188    10.451301   0.11968352 
    6400   -1341.3185    75.695982   -1265.6225    1175.9229    67221.329    10.451301   0.11557399 
    6500   -1342.2193    82.975399   -1259.2439    1289.0073     68214.17    10.451301   0.10112712 
    6600   -1334.0674    79.057756   -1255.0096    1228.1474    73123.376    10.451301   0.11126778 
    6700   -1336.0819    85.534166   -1250.5478    1328.7572    72479.833    10.451301   0.11705683 
    6800    -1340.373    81.126387   -1259.2466    1260.2832    69287.871    10.451301   0.11523189 
    6900    -1349.169    82.811205   -1266.3578    1286.4566    62792.794    10.451301   0.10992532 
    7000   -1338.9073    83.367999   -1255.5393    1295.1062    71033.497    10.451301    0.1204678 
    7100    -1334.004     81.96203    -1252.042    1273.2648    74290.844    10.451301   0.12436992 
    7200   -1339.2006     85.04598   -1254.1547    1321.1734    70836.126    10.451301   0.12274634 
    7300   -1341.1947    79.483861   -1261.7108    1234.7669    67686.286    10.451301   0.12574378 
    7400   -1337.4237    84.364911   -1253.0588    1310.5931    71540.899    10.451301   0.12388945 
    7500   -1339.9092    85.169335   -1254.7399    1323.0897    70208.685    10.451301    0.1080806 
    7600   -1344.2334    83.539887   -1260.6935    1297.7765    66661.963    10.451301   0.10642488 
    7700   -1343.6914    81.501293   -1262.1902    1266.1073    67314.178    10.451301   0.11449466 
    7800   -1331.6996    81.946092   -1249.7535    1273.0172    75256.804    10.451301    0.1220687 
    7900   -1334.8197    82.083367   -1252.7363    1275.1497    73700.046    10.451301   0.11602454 
    8000   -1341.1593    80.101368   -1261.0579    1244.3597    68302.549    10.451301   0.10679446 
    8100   -1337.2225    75.608429    -1261.614    1174.5628    70761.826    10.451301   0.11649954 
    8200   -1338.8158    86.066515   -1252.7493    1337.0272    71280.911    10.451301   0.11469149 
    8300   -1336.7296    82.929216   -1253.8003    1288.2898    72780.528    10.451301   0.12301827 
    8400   -1331.9054    82.373384    -1249.532    1279.6551    74849.744    10.451301   0.12227424 
    8500   -1343.9247    82.018326   -1261.9064    1274.1393    66209.605    10.451301   0.11043317 
    8600   -1336.7242    80.715662   -1256.0085    1253.9027    71791.423    10.451301    0.1164601 
    8700   -1334.7566    81.906241   -1252.8504    1272.3981    73603.462    10.451301   0.11424166 
    8800   -1339.6888    87.364291   -1252.3245    1357.1879    70173.875    10.451301   0.11286189 
    8900     -1342.11     83.31104    -1258.799    1294.2214    68825.962    10.451301   0.11968646 
    9000   -1334.5883     83.65548   -1250.9329    1299.5722    73599.519    10.451301    0.1210858 
    9100   -1335.3483    81.006762   -1254.3416    1258.4249    72706.395    10.451301   0.12548497 
    9200   -1338.3209    85.688541   -1252.6323    1331.1554    71728.172    10.451301   0.11843153 
    9300   -1338.3388    81.665041   -1256.6738    1268.6511    70769.898    10.451301   0.11675028 
    9400   -1335.2244    81.056844   -1254.1675    1259.2029    72469.905    10.451301    0.1253973 
    9500   -1334.6764    84.594189   -1250.0822    1314.1549    73537.878    10.451301   0.13056052 
    9600   -1340.9856    83.726763   -1257.2589    1300.6796      69680.3    10.451301   0.12164728 
    9700   -1338.6561    80.053553   -1258.6026    1243.6169    69448.593    10.451301   0.11846831 
    9800   -1337.2998    86.097261   -1251.2025    1337.5048    72118.155    10.451301   0.11779975 
    9900   -1338.0835    82.602289   -1255.4812    1283.2111    71068.616    10.451301   0.12199828 
   10000   -1339.4244    90.715018   -1248.7094    1409.2408     71423.48    10.451301   0.12465867 
   10100   -1336.9544    82.353263   -1254.6011    1279.3425    71760.232    10.451301   0.14093237 
   10200   -1337.6391     84.96288   -1252.6762    1319.8824    71040.891    10.451301   0.13164522 
   10300   -1331.3327    80.636241   -1250.6965    1252.6689    75461.568    10.451301   0.13237784 
   10400   -1340.0119    83.264329   -1256.7476    1293.4957    69388.291    10.451301   0.11365833 
   10500   -1340.5088     78.80212   -1261.7066    1224.1762    69465.211    10.451301    0.1122575 
   10600   -1333.9212    84.036682   -1249.8845    1305.4941    74363.729    10.451301   0.12459716 
   10700   -1335.4943    81.074454   -1254.4198    1259.4764    72930.866    10.451301   0.12878919 
   10800   -1339.3322      84.1896   -1255.1426    1307.8697    70150.843    10.451301   0.12446322 
   10900   -1341.6032    76.445695   -1265.1575    1187.5696    68048.001    10.451301   0.11808363 
   11000   -1336.7067    79.427677   -1257.2791    1233.8941     71828.16    10.451301   0.11652782 
   11100   -1336.4376    85.031544   -1251.4061    1320.9491    72359.373    10.451301   0.11466252 
   11200    -1337.309    78.283711   -1259.0253    1216.1228    71170.615    10.451301    0.1261349 
   11300   -1334.8579    80.862251   -1253.9956    1256.1799    72498.731    10.451301   0.12995023 
   11400   -1337.2059    82.852112   -1254.3537     1287.092    71903.899    10.451301   0.12836074 
   11500   -1343.3237    79.509668   -1263.8141    1235.1678    66598.373    10.451301    0.1294268 
   11600   -1338.1101    78.823785   -1259.2863    1224.5127    70332.159    10.451301   0.13248226 
   11700   -1337.5578    85.610611   -1251.9472    1329.9448    71855.492    10.451301   0.12421298 
   11800   -1338.8333    83.561113   -1255.2722    1298.1062    70865.087    10.451301   0.10831511 
   11900   -1343.2559    78.262204   -1264.9937    1215.7887    66473.242    10.451301    0.1074839 
   12000   -1338.4002    82.360177     -1256.04    1279.4499    71367.589    10.451301   0.12427726 
   12100   -1333.5778    84.664711   -1248.9131    1315.2504    74367.292    10.451301   0.14090951 
   12200   -1337.6559    83.520144   -1254.1357    1297.4698    71900.079    10.451301   0.13999572 
   12300   -1342.8407     85.10916   -1257.7316    1322.1549    67526.409    10.451301   0.12665833 
   12400   -1339.7656     90.54409   -1249.2215    1406.5855    70892.853    10.451301   0.12414914 
   12500   -1336.9952    86.060754   -1250.9345    1336.9377    72030.207    10.451301   0.11693242 
   12600   -1335.4701     77.92376   -1257.5464     1210.531    71384.221    10.451301   0.12494391 
   12700   -1336.6202    86.956603   -1249.6636    1350.8545    72423.723    10.451301   0.12606821 
   12800    -1337.768    81.315512   -1256.4525    1263.2212    71081.155    10.451301   0.12338522 
   12900   -1342.3418    79.387552   -1262.9542    1233.2707    67437.197    10.451301   0.12242586 
   13000   -1335.0013    82.061216     -1252.94    1274.8056    72609.122    10.451301   0.12985251 
   13100   -1334.4225    81.616053   -1252.8064    1267.8901    74197.045    10.451301   0.12535327 
   13200   -1339.2467    81.411357   -1257.8353    1264.7102    70339.825    10.451301   0.12037148 
   13300    -1339.769    84.271006    -1255.498    1309.1343    69858.426    10.451301   0.11548064 
   13400   -1335.2897    82.002655    -1253.287    1273.8959    72687.023    10.451301   0.12160367 
   13500   -1333.0692    88.065205    -1245.004    1368.0765     75227.84    10.451301   0.12693947 
   13600   -1337.0879    83.145754   -1253.9421    1291.6537    71996.125    10.451301   0.12900806 
   13700    -1339.867    84.194622   -1255.6723    1307.9477    69963.915    10.451301   0.12352939 
   13800   -1336.9739    87.476588   -1249.4973    1358.9324    72109.603    10.451301   0.12638936 
   13900   -1336.6047    80.258685    -1256.346    1246.8036    71183.034    10.451301   0.13140778 
   14000   -1341.8118     84.03499   -1257.7768    1305.4678    68712.438    10.451301   0.12166155 
   14100   -1334.4283    83.007428   -1251.4208    1289.5048    73703.376    10.451301   0.13001933 
   14200   -1333.5758    84.715148   -1248.8606    1316.0339    73469.657    10.451301   0.13067479 
   14300   -1344.5172    85.686875   -1258.8304    1331.1295     66829.77    10.451301   0.11533274 
   14400   -1342.9733    83.746225    -1259.227    1300.9819    67668.547    10.451301   0.11740984 
   14500    -1335.697    84.502969    -1251.194    1312.7378    72599.076    10.451301    0.1306377 
   14600   -1339.5303    84.939973   -1254.5903    1319.5266    69990.856    10.451301   0.13192621 
   14700   -1342.2308    83.808522   -1258.4223    1301.9497    68370.465    10.451301   0.12670363 
   14800   -1330.6316    82.049021   -1248.5826    1274.6162    75601.541    10.451301   0.13059466 
   14900   -1339.3375    92.072227   -1247.2653    1430.3248    71222.769    10.451301   0.11849116 
   15000     -1338.67    79.911062   -1258.7589    1241.4034    69906.575    10.451301   0.12263382 
   15100    -1335.267     81.15215   -1254.1149    1260.6834    73096.598    10.451301   0.13109181 
   15200    -1334.843    84.020304   -1250.8227    1305.2397    73457.864    10.451301   0.13538914 
   15300   -1339.1079    81.299471   -1257.8084     1262.972    69970.175    10.451301    0.1497937 
   15400   -1337.8161    89.616914   -1248.1992     1392.182    72280.477    10.451301   0.15250496 
   15500   -1334.5326    83.327995   -1251.2046    1294.4848    72921.531    10.451301   0.14311082 
   15600   -1338.4968    83.173071   -1255.3237    1292.0781    70699.403    10.451301   0.12186248 
   15700   -1344.2976    83.567129   -1260.7305    1298.1997    67361.944    10.451301   0.11330804 
   15800   -1337.3154     87.08825   -1250.2271    1352.8996    72072.277    10.451301    0.1207493 
   15900    -1333.621    86.219533   -1247.4014    1339.4043    75316.402    10.451301   0.12546182 
   16000   -1340.4232    83.316524   -1257.1067    1294.3066    69723.578    10.451301   0.11702346 
   16100   -1341.8719    81.810024   -1260.0619    1270.9034    67690.102    10.451301   0.10786749 
   16200   -1333.2603    86.152619   -1247.1077    1338.3648    75212.102    10.451301    0.1176409 
   16300   -1334.8355    85.176579    -1249.659    1323.2022    74395.493    10.451301   0.12737019 
   16400   -1339.0061    81.776219   -1257.2299    1270.3782    70097.985    10.451301   0.11578251 
   16500   -1343.9569    81.477813   -1262.4791    1265.7426    66874.293    10.451301   0.10723232 
   16600   -1336.5339    82.628695   -1253.9052    1283.6213    72919.207    10.451301   0.11849209 
   16700   -1336.6774    84.182717   -1252.4947    1307.7627    72159.684    10.451301   0.13056706 
   16800   -1335.3122    77.170115   -1258.1421    1198.8233    73564.246    10.451301   0.13514219 
   16900   -1337.0307    82.810193   -1254.2205    1286.4408    71440.298    10.451301   0.12239763 
   17000   -1338.9178    86.439716   -1252.4781    1342.8248    70405.423    10.451301   0.11931623 
   17100   -1333.3373    86.597219   -1246.7401    1345.2716    75616.932    10.451301   0.12431202 
   17200   -1336.6514    82.212805   -1254.4386    1277.1605    72092.625    10.451301   0.13435462 
   17300   -1337.1609    81.054988   -1256.1059    1259.1741    71133.457    10.451301   0.13402709 
   17400   -1337.8389    85.723348   -1252.1156    1331.6961    71552.336    10.451301   0.12919001 
   17500   -1334.9173    84.633998   -1250.2833    1314.7733    74140.779    10.451301   0.12590579 
   17600   -1337.8779    82.726377   -1255.1515    1285.1388    70913.701    10.451301   0.11841656 
   17700   -1333.7657    79.094161   -1254.6716     1228.713    73783.965    10.451301   0.11355825 
   17800   -1338.0562    82.175756   -1255.8804     1276.585    72052.233    10.451301   0.11476822 
   17900   -1337.9559     84.78021   -1253.1757    1317.0447    71349.839    10.451301   0.12011474 
   18000   -1339.5571    80.689206   -1258.8679    1253.4917    70295.657    10.451301   0.12040321 
   18100   -1337.0333    83.260099   -1253.7732      1293.43     71131.77    10.451301    0.1248604 
   18200   -1335.7806    85.296096   -1250.4845    1325.0589    72812.209    10.451301    0.1252019 
   18300   -1340.0791    81.987553   -1258.0916    1273.6613    69649.328    10.451301    0.1215254 
   18400   -1337.9141    82.846673   -1255.0674    1287.0075    71192.466    10.451301   0.12663825 
   18500   -1332.6778    83.442108   -1249.2357    1296.2575    75317.675    10.451301   0.13264635 
   18600   -1336.0154    79.029552   -1256.9858    1227.7093    72207.085    10.451301   0.13829766 
   18700   -1332.8446    80.301625    -1252.543    1247.4707    74160.521    10.451301     0.139643 
   18800   -1330.9441    83.315252   -1247.6289    1294.2868    75963.626    10.451301   0.13798396 
   18900   -1337.8716    80.711669     -1257.16    1253.8406    71103.983    10.451301   0.12218668 
   19000     -1341.67    82.294609   -1259.3754    1278.4313    68154.186    10.451301   0.11564564 
   19100   -1339.8082    83.107721   -1256.7005    1291.0629    69634.245    10.451301   0.13036509 
   19200   -1335.2262    83.295656   -1251.9306    1293.9824    72573.927    10.451301    0.1351322 
   19300   -1332.2547     88.80397   -1243.4508     1379.553    75976.496    10.451301   0.13451344 
   19400   -1336.4654    82.865298   -1253.6001    1287.2969    71686.565    10.451301   0.12870293 
   19500   -1338.1082    80.116747   -1257.9915    1244.5987    70729.568    10.451301   0.12390998 
   19600   -1336.4929     88.56854   -1247.9243    1375.8957    72497.674    10.451301   0.11946142 
   19700   -1334.0116    79.890982   -1254.1206    1241.0914    73759.282    10.451301   0.12965607 
   19800   -1332.2167    80.435845   -1251.7809    1249.5558    74362.628    10.451301   0.13554542 
   19900   -1334.9611    82.729628   -1252.2314    1285.1893     73246.44    10.451301   0.12799041 
   20000   -1335.9008    79.772966   -1256.1278    1239.2581    71762.951    10.451301   0.12616997 
   20100   -1336.0817    85.093337   -1250.9883     1321.909    72475.505    10.451301   0.12143923 
   20200   -1344.4021    82.285932   -1262.1162    1278.2965    65935.303    10.451301   0.11751307 
   20300   -1342.6794    85.334106   -1257.3453    1325.6493    68221.072    10.451301   0.12143219 
   20400   -1336.4309    84.399679   -1252.0312    1311.1332    71428.633    10.451301   0.13415398 
   20500   -1338.2807    88.160421   -1250.1203    1369.5556    71221.701    10.451301   0.13240325 
   20600   -1336.2602    80.597824   -1255.6624    1252.0721    71838.621    10.451301   0.13256353 
   20700   -1335.7576    84.147016   -1251.6106    1307.2081    72401.557    10.451301   0.12673743 
   20800   -1338.2579    76.736149   -1261.5218    1192.0817    70421.109    10.451301    0.1245628 
   20900   -1342.0386    86.248055   -1255.7906    1339.8474    68713.888    10.451301    0.1149604 
   21000   -1339.7925    88.054801   -1251.7377    1367.9148    70081.519    10.451301   0.12019532 
   21100   -1334.6125    85.684935   -1248.9276    1331.0994    74099.967    10.451301   0.13411882 
   21200   -1336.8264    84.507315   -1252.3191    1312.8053    72126.623    10.451301   0.13677571 
   21300   -1340.5391     87.15457   -1253.3846    1353.9299    70146.174    10.451301   0.13463067 
   21400   -1338.1637    80.375923   -1257.7878    1248.6249    70147.986    10.451301   0.13551354 
   21500   -1335.2573    83.460467   -1251.7968    1296.5427    72921.091    10.451301   0.12922333 
   21600   -1337.8995    80.402942   -1257.4966    1249.0446    70641.394    10.451301   0.12248357 
   21700   -1337.0812    88.810735   -1248.2705    1379.6581    72173.941    10.451301   0.11663213 
   21800   -1334.7246    78.961058   -1255.7635    1226.6452    72423.237    10.451301   0.12643792 
   21900   -1336.4275     82.78764   -1253.6398    1286.0905    72308.439    10.451301   0.12295553 
   22000    -1334.376    77.923427   -1256.4526    1210.5258    73454.985    10.451301   0.12396042 
   22100   -1338.0787    86.217743    -1251.861    1339.3765    71520.621    10.451301   0.11253032 
   22200   -1344.0951    82.320847   -1261.7742    1278.8389    66648.725    10.451301   0.10651457 
   22300   -1344.7365    79.381259   -1265.3552     1233.173    65755.837    10.451301   0.11033203 
   22400   -1337.6131    82.739482   -1254.8736    1285.3423    71306.955    10.451301   0.12027264 
   22500   -1339.2043    90.401725   -1248.8026    1404.3739    70157.533    10.451301   0.12315899 
   22600   -1343.1063    86.473965   -1256.6323    1343.3568    68662.006    10.451301   0.12727666 
   22700   -1338.8448    85.433533   -1253.4112    1327.1939    70566.109    10.451301   0.12745468 
   22800   -1331.1396    84.839484   -1246.3001    1317.9655    76475.969    10.451301   0.13006343 
   22900   -1334.2462    84.720341   -1249.5259    1316.1146    74074.807    10.451301   0.12487902 
   23000   -1335.1919      78.5391   -1256.6528    1220.0902    72524.742    10.451301   0.13485223 
   23100   -1337.1918    85.774197   -1251.4176    1332.4861    71778.228    10.451301   0.13176237 
   23200   -1337.2925    84.588661   -1252.7038     1314.069     71902.36    10.451301   0.14279352 
   23300   -1338.2994    86.768733   -1251.5307     1347.936    71128.622    10.451301   0.12930613 
   23400   -1342.9048    79.955527   -1262.9493    1242.0941    67069.424    10.451301   0.12216562 
   23500   -1339.7429    83.285403   -1256.4575    1293.8231     69851.27    10.451301   0.12548618 
   23600   -1333.8931    81.545027   -1252.3481    1266.7867    74323.763    10.451301   0.12312097 
   23700    -1332.862    84.574998    -1248.287    1313.8567    74815.781    10.451301   0.12447824 
   23800   -1335.9863    78.561298    -1257.425     1220.435    72308.806    10.451301    0.1254762 
   23900   -1338.9482    82.474666   -1256.4736    1281.2285    70911.031    10.451301   0.12302784 
   24000   -1336.4685    86.750219   -1249.7183    1347.6484     72770.59    10.451301   0.12515629 
   24100   -1340.3834    89.684929   -1250.6985    1393.2386    70434.278    10.451301   0.11752591 
   24200    -1340.754    81.882088   -1258.8719    1272.0229    68894.758    10.451301   0.11356996 
   24300   -1337.5578    82.404181   -1255.1536    1280.1335    72151.685    10.451301    0.1173964 
   24400   -1330.2098     82.15166   -1248.0581    1276.2106    76147.464    10.451301   0.12974187 
   24500   -1337.0369    83.879751   -1253.1572    1303.0562    72079.057    10.451301   0.12401632 
   24600   -1340.9905    83.399806   -1257.5907    1295.6004     69064.02    10.451301   0.11753792 
   24700   -1338.4818    84.533337   -1253.9484    1313.2095    70543.822    10.451301   0.12590087 
   24800   -1334.0948     88.70478   -1245.3901    1378.0121    74451.863    10.451301    0.1272841 
   24900   -1340.4285    85.654463    -1254.774     1330.626    69429.731    10.451301   0.11703662 
   25000   -1338.0228    80.068808    -1257.954    1243.8539     70169.38    10.451301   0.11764323 
   25100    -1333.984    84.681066    -1249.303    1315.5045    74270.252    10.451301   0.12090703 
   25200   -1335.9529    83.113776   -1252.8391    1291.1569    72584.433    10.451301   0.12731776 
   25300   -1336.4377    82.641308   -1253.7964    1283.8172    71518.639    10.451301   0.13084122 
   25400   -1338.2653    89.618952   -1248.6464    1392.2136    71059.358    10.451301   0.12593128 
   25500   -1339.8147    81.634611   -1258.1801    1268.1784    69309.497    10.451301   0.12791766 
   25600   -1335.5178    82.347344   -1253.1705    1279.2506    72855.231    10.451301   0.13046561 
   25700   -1333.2658    87.849921   -1245.4159    1364.7321    74972.093    10.451301   0.13074169 
   25800    -1337.313    80.065554   -1257.2475    1243.8034    70344.431    10.451301   0.13475446 
   25900   -1335.4124     87.03682   -1248.3756    1352.1007    73354.278    10.451301   0.13404351 
   26000   -1335.5085    80.276161   -1255.2324    1247.0751    72588.498    10.451301   0.13720989 
   26100    -1342.426    76.568891   -1265.8571    1189.4834    67293.537    10.451301   0.12371068 
   26200   -1339.2497    80.484728   -1258.7649    1250.3152    69289.833    10.451301   0.12434712 
   26300   -1335.5633    85.412981   -1250.1503    1326.8747    72777.204    10.451301   0.13389017 
   26400   -1333.7847    79.937192   -1253.8475    1241.8093    73546.185    10.451301   0.13215913 
   26500      -1339.2    77.599467   -1261.6006    1205.4932    70246.017    10.451301   0.12329753 
   26600   -1339.4911    84.107601   -1255.3835    1306.5958    69745.705    10.451301   0.11651393 
   26700   -1338.4048    85.700447   -1252.7044    1331.3404    71115.404    10.451301   0.12142902 
   26800   -1336.7273     87.62317   -1249.1041    1361.2095     72848.86    10.451301   0.13640968 
   26900   -1341.0417    87.345062   -1253.6966    1356.8892    69556.452    10.451301   0.12754208 
   27000   -1339.3133    78.070673   -1261.2426    1212.8133    69721.906    10.451301   0.12581367 
   27100   -1340.7795    90.292245   -1250.4872    1402.6731    69657.121    10.451301   0.11492353 
   27200   -1340.4625    89.828041   -1250.6345    1395.4618    69992.042    10.451301   0.12065294 
   27300   -1339.0037    82.742954   -1256.2607    1285.3963    70500.856    10.451301   0.13039291 
   27400   -1334.1319    83.112861   -1251.0191    1291.1427    74223.307    10.451301   0.12807323 
   27500   -1335.2882    85.098415   -1250.1898    1321.9879    73677.362    10.451301   0.12382078 
   27600   -1339.3886    82.534189   -1256.8544    1282.1532    70082.188    10.451301   0.11586886 
   27700   -1343.0642    82.935597   -1260.1286     1288.389    67549.648    10.451301   0.11915065 
   27800   -1335.1238    83.898572   -1251.2252    1303.3486    72822.815    10.451301   0.13338014 
   27900   -1331.2065    83.351083   -1247.8554    1294.8435    74912.077    10.451301   0.13810526 
   28000   -1343.0617    84.668041   -1258.3936    1315.3021    67450.737    10.451301   0.11710904 
   28100   -1344.4573    87.083044   -1257.3742    1352.8188    66924.633    10.451301   0.11452997 
   28200   -1340.0607    84.915501   -1255.1451    1319.1464    69981.803    10.451301   0.11699485 
   28300   -1336.1601    84.531015   -1251.6291    1313.1735    72324.723    10.451301   0.12704292 
   28400   -1342.8381    91.485681   -1251.3524    1421.2129    68965.896    10.451301   0.11436736 
   28500   -1340.9271    86.330468   -1254.5966    1341.1276    69334.774    10.451301   0.11530411 
   28600   -1334.6009    81.257433   -1253.3435     1262.319    72821.777    10.451301   0.11712102 
   28700   -1336.6865    82.505496    -1254.181    1281.7074    71442.504    10.451301   0.11868373 
   28800   -1340.4819    87.773284   -1252.7087    1363.5415    69758.442    10.451301   0.11831416 
   28900   -1340.5685    83.919717   -1256.6488    1303.6771    69879.215    10.451301   0.12481443 
   29000   -1330.9194    88.101869   -1242.8175     1368.646    76193.595    10.451301   0.13040559 
   29100   -1338.2157    86.468855   -1251.7468    1343.2775    71413.972    10.451301   0.12515577 
   29200   -1343.2883    86.877251   -1256.4111    1349.6218    67311.501    10.451301   0.11755325 
   29300   -1338.7324    83.683674   -1255.0488    1300.0102    70609.585    10.451301   0.11780335 
   29400   -1330.8161    83.923434   -1246.8926    1303.7348    76020.671    10.451301   0.12514949 
   29500   -1338.0334    82.737153   -1255.2963    1285.3062    70923.482    10.451301   0.11948829 
   29600   -1340.4805    77.969283   -1262.5112    1211.2382    68506.879    10.451301   0.11842962 
   29700   -1341.6286    85.217944   -1256.4106    1323.8448    68908.128    10.451301   0.12472927 
   29800   -1337.8647    87.788142   -1250.0766    1363.7723    72310.241    10.451301   0.13496917 
   29900   -1332.9815    84.138224   -1248.8433    1307.0715    75419.109    10.451301   0.13130009 
   30000   -1340.9839    82.546102   -1258.4378    1282.3382    69561.052    10.451301   0.12108931 
   30100   -1340.7448    86.021025   -1254.7238    1336.3205    68986.552    10.451301   0.12310474 
   30200   -1338.9504    82.772569   -1256.1779    1285.8564    71005.503    10.451301   0.12626338 
   30300     -1337.63    75.645913   -1261.9841    1175.1451    70455.777    10.451301   0.12626233 
   30400   -1341.4028    86.008978   -1255.3939    1336.1334    69301.332    10.451301   0.11430095 
   30500   -1337.6715    82.351721   -1255.3197    1279.3185    71196.193    10.451301   0.12084693 
   30600   -1337.0323    86.674597   -1250.3577    1346.4736    72461.346    10.451301   0.12894633 
   30700   -1335.0265    81.966048   -1253.0605    1273.3272    72962.931    10.451301   0.14442163 
   30800   -1333.7849    86.710816   -1247.0741    1347.0363     74539.23    10.451301    0.1403113 
   30900    -1336.587    83.622674   -1252.9643    1299.0626     71952.95    10.451301   0.13363953 
   31000   -1338.3475    86.279554   -1252.0679    1340.3367    71249.288    10.451301   0.11653384 
   31100   -1335.6894     78.91054   -1256.7789    1225.8604    72464.796    10.451301   0.12421205 
   31200   -1337.4331    83.529392   -1253.9037    1297.6134    71502.455    10.451301   0.12591414 
   31300     -1331.47    82.746782   -1248.7232    1285.4558    75242.224    10.451301   0.13709737 
   31400   -1336.5224    77.799256   -1258.7231    1208.5969    71123.272    10.451301   0.14076985 
   31500   -1337.6993    79.493663   -1258.2056    1234.9192    70562.443    10.451301   0.12587461 
   31600   -1337.6672    82.015843   -1255.6514    1274.1008     71560.79    10.451301    0.1154628 
   31700   -1337.4993    83.846154   -1253.6531    1302.5343    71820.838    10.451301   0.12122435 
   31800   -1337.2248    84.036929   -1253.1879    1305.4979    72111.717    10.451301   0.12728185 
   31900   -1337.8139    82.877894    -1254.936    1287.4925    71253.276    10.451301   0.13476822 
   32000   -1332.8622    87.346793   -1245.5154    1356.9161    74782.136    10.451301    0.1378411 
   32100   -1337.9006     90.13482   -1247.7658    1400.2275    72353.635    10.451301   0.13213443 
   32200   -1338.6074    81.933844   -1256.6736    1272.8269    70136.108    10.451301   0.13867417 
   32300   -1333.2126     84.69891   -1248.5137    1315.7817    74362.477    10.451301   0.14349986 
   32400   -1332.9339    86.349482   -1246.5844     1341.423    75463.076    10.451301   0.14951283 
   32500   -1336.8193    84.564646   -1252.2547    1313.6959    72449.514    10.451301   0.14384236 
   32600   -1343.8344    85.727415    -1258.107    1331.7593    67377.479    10.451301   0.13740317 
   32700   -1341.2971    74.458737   -1266.8384    1156.7025    67183.808    10.451301   0.15051633 
   32800   -1337.9672    82.945895   -1255.0213    1288.5489     70662.83    10.451301   0.15574095 
   32900   -1336.1892    87.157436   -1249.0318    1353.9744    72719.623    10.451301   0.14868953 
   33000   -1341.7602     84.23583   -1257.5244    1308.5878    68618.232    10.451301    0.1352714 
   33100    -1345.314    87.165061    -1258.149    1354.0929    66360.357    10.451301   0.13260512 
   33200   -1335.0149    83.370098   -1251.6448    1295.1388     72591.32    10.451301   0.15152793 
   33300   -1337.6828    84.652742   -1253.0301    1315.0645    71909.103    10.451301   0.15060009 
   33400   -1341.7248    88.567662   -1253.1571     1375.882    69791.322    10.451301   0.15031209 
   33500   -1336.1711    82.394085    -1253.777    1279.9767    71726.035    10.451301   0.16156221 
   33600   -1338.6706    85.729726   -1252.9409    1331.7952    70508.207    10.451301   0.15195788 
   33700   -1338.1296    78.060009   -1260.0696    1212.6476    70148.803    10.451301   0.15851251 
   33800   -1333.1362    80.099852   -1253.0363    1244.3362    73651.351    10.451301   0.16240661 
   33900   -1334.2017    87.901007   -1246.3007    1365.5257    74030.716    10.451301   0.16623744 
   34000   -1337.4454    82.819176   -1254.6262    1286.5804    71691.458    10.451301    0.1571404 
   34100   -1339.0056     80.37052   -1258.6351     1248.541    69505.533    10.451301   0.15036333 
   34200   -1340.1851    89.227532   -1250.9576     1386.133    70761.019    10.451301   0.14998049 
   34300   -1335.3577    83.872356   -1251.4853    1302.9413      73531.5    10.451301   0.15335718 
   34400   -1340.2216    78.907313   -1261.3143    1225.8103    68529.503    10.451301   0.14997617 
   34500   -1337.4921    84.645743   -1252.8464    1314.9557    71715.171    10.451301   0.15161271 
   34600   -1336.8304    88.190251   -1248.6401     1370.019    72397.509    10.451301   0.15191839 
   34700   -1339.2835     83.98761   -1255.2959    1304.7318    69746.465    10.451301   0.15253883 
   34800   -1337.7466    83.957125   -1253.7895    1304.2582    71421.528    10.451301   0.15059865 
   34900   -1342.1313    83.033449   -1259.0978    1289.9091    67568.268    10.451301   0.13950175 
   35000   -1335.5851    85.728646   -1249.8564    1331.7785    72575.483    10.451301    0.1293109 
   35100   -1335.2744     79.31441     -1255.96    1232.1345    72824.541    10.451301   0.12984839 
   35200   -1341.2076    81.995889   -1259.2117    1273.7908    68736.342    10.451301   0.13669469 
   35300   -1330.4533     84.06162   -1246.3917    1305.8815    76706.623    10.451301   0.16045293 
   35400   -1333.2457    82.025598   -1251.2201    1274.2523    74377.922    10.451301   0.15451018 
   35500   -1340.6096    84.517409   -1256.0922    1312.9621    69227.308    10.451301   0.13614773 
   35600    -1337.899    78.992281   -1258.9067    1227.1303     71278.24    10.451301   0.13600824 
   35700     -1338.35    82.556391   -1255.7936    1282.4981      71362.4    10.451301   0.13557312 
   35800   -1334.9796    79.872572    -1255.107    1240.8054    72444.077    10.451301   0.15885229 
   35900   -1332.3812    85.967177    -1246.414     1335.484    75488.172    10.451301   0.15577429 
   36000   -1340.4806    86.033314   -1254.4473    1336.5114     69778.55    10.451301    0.1415213 
   36100   -1341.4902    83.265818   -1258.2243    1293.5189    68848.243    10.451301    0.1403701 
   36200   -1333.9582    84.850328   -1249.1079    1318.1339     74216.89    10.451301   0.14122062 
   36300   -1333.9699    84.491835   -1249.4781    1312.5648    74465.459    10.451301   0.13429226 
   36400   -1338.9963    80.356117   -1258.6401    1248.3172    70214.343    10.451301   0.13734218 
   36500   -1337.8238    83.725851    -1254.098    1300.6654    71757.031    10.451301   0.13653128 
   36600   -1335.0337    80.615893   -1254.4178    1252.3528    72429.266    10.451301   0.14129618 
   36700    -1338.209    82.192855   -1256.0162    1276.8506    71280.525    10.451301   0.14125202 
   36800   -1331.4326    80.667582    -1250.765    1253.1558    75026.043    10.451301    0.1507543 
   36900   -1336.5037    86.084012   -1250.4197     1337.299    72501.343    10.451301   0.14811629 
   37000    -1342.762    84.587027    -1258.175    1314.0436    67532.782    10.451301   0.14684496 
   37100   -1337.4384    83.065448   -1254.3729    1290.4062    70682.202    10.451301   0.16224128 
   37200   -1330.6986    83.537478   -1247.1612    1297.7391    76489.685    10.451301   0.16595002 
   37300   -1335.5995    82.140754   -1253.4588    1276.0412    73047.683    10.451301   0.14488559 
   37400    -1340.543    80.749476   -1259.7935     1254.428     69925.63    10.451301   0.13185263 
   37500   -1337.7618    84.920251   -1252.8415    1319.2202    71418.417    10.451301   0.13999686 
   37600   -1335.8096    83.208092   -1252.6015    1292.6221    71784.534    10.451301   0.14626739 
   37700   -1338.1033    85.557531   -1252.5458    1329.1202    72228.763    10.451301   0.13919601 
   37800   -1340.0859    77.534258   -1262.5517    1204.4802     67971.57    10.451301   0.14891906 
   37900   -1335.9136    83.882382   -1252.0313    1303.0971    72658.622    10.451301    0.1493272 
   38000   -1336.9003    87.061304    -1249.839     1352.481    72056.432    10.451301   0.13669579 
   38100   -1346.1329    83.499956   -1262.6329    1297.1562    65833.296    10.451301   0.12056403 
   38200   -1337.9897    81.170899   -1256.8188    1260.9747    70915.771    10.451301   0.13444279 
   38300   -1334.5503    82.839734   -1251.7105    1286.8997    73717.767    10.451301   0.14928146 
   38400   -1335.8296    83.480347   -1252.3493    1296.8516    72872.643    10.451301   0.15275618 
   38500   -1339.7477    82.589724    -1257.158    1283.0159     69938.95    10.451301   0.14286576 
   38600    -1339.602    84.437598   -1255.1644    1311.7223     70298.56    10.451301   0.14094453 
   38700   -1334.5516    86.915394   -1247.6363    1350.2144    74864.158    10.451301    0.1497079 
   38800    -1339.019    80.163257   -1258.8557    1245.3212    69503.284    10.451301   0.14819195 
   38900   -1338.3254    82.216729   -1256.1087    1277.2215    71146.291    10.451301   0.14859978 
   39000   -1335.7484    82.554875   -1253.1935    1282.4745    72865.868    10.451301   0.15302588 
   39100   -1335.8857    81.115498   -1254.7702    1260.1141     72082.08    10.451301   0.14878789 
   39200   -1336.8651    84.076222   -1252.7889    1306.1083    72112.649    10.451301   0.14370931 
   39300   -1337.9905    77.578725   -1260.4118    1205.1709    70687.827    10.451301   0.14102276 
   39400   -1337.3025    87.427747   -1249.8747    1358.1737     72294.87    10.451301   0.12970224 
   39500   -1338.5606    82.550907   -1256.0097    1282.4129    70625.526    10.451301   0.13795847 
   39600   -1339.3787    85.536897   -1253.8418    1328.7997    70617.492    10.451301    0.1457552 
   39700   -1333.2284    85.915978   -1247.3124    1334.6886    75344.988    10.451301   0.15441664 
   39800   -1338.5718    79.237391   -1259.3344     1230.938    69730.772    10.451301   0.15469161 
   39900     -1342.41    85.575507   -1256.8345    1329.3995    68533.841    10.451301   0.13852821 
   40000   -1337.6695    85.832163   -1251.8373    1333.3866    71339.668    10.451301   0.12964564 
   40100   -1337.4849      85.0816   -1252.4033    1321.7267    72359.504    10.451301   0.14668476 
   40200   -1338.3348    82.138365   -1256.1965    1276.0041     70942.68    10.451301   0.14387844 
   40300   -1336.2047    81.063848   -1255.1409    1259.3117    72860.816    10.451301   0.15102846 
   40400   -1334.7059     88.26138   -1246.4445     1371.124    73991.304    10.451301   0.15235135 
   40500    -1335.363    82.297325   -1253.0656    1278.4735    73085.935    10.451301    0.1521769 
   40600   -1335.9696    89.689409   -1246.2802    1393.3082    73317.267    10.451301   0.13962182 
   40700   -1335.9926    80.895174   -1255.0974    1256.6914    71830.967    10.451301   0.13786304 
   40800   -1336.7221    80.626629   -1256.0954    1252.5196     71270.52    10.451301   0.13999271 
   40900   -1332.8183    83.694316    -1249.124    1300.1755     74806.51    10.451301   0.14414243 
   41000   -1336.8114    85.623713   -1251.1877    1330.1483    72076.101    10.451301   0.14012351 
   41100   -1341.0102    82.194219    -1258.816    1276.8718     68685.91    10.451301   0.13113679 
   41200   -1339.0379    87.473518   -1251.5644    1358.8847    71309.209    10.451301   0.14225293 
   41300   -1334.8703    82.250826   -1252.6195    1277.7512    72522.722    10.451301   0.15416458 
   41400   -1336.4915    81.957673   -1254.5338    1273.1971    72118.938    10.451301   0.15999422 
   41500     -1333.92    83.934431   -1249.9855    1303.9057    73917.951    10.451301   0.16774682 
   41600   -1338.0488    86.818312   -1251.2305    1348.7062    71819.255    10.451301   0.15139287 
   41700   -1338.1308    79.285338   -1258.8454    1231.6829    70484.425    10.451301   0.13704785 
   41800   -1342.1336    82.376107   -1259.7575    1279.6974    68147.895    10.451301   0.12442514 
   41900   -1336.7521    84.405839   -1252.3462    1311.2289    72515.961    10.451301    0.1347492 
   42000   -1332.6054    83.370049   -1249.2353    1295.1381    75424.652    10.451301   0.14910983 
   42100   -1339.2377    79.575863   -1259.6619    1236.1961    69402.176    10.451301   0.14977715 
   42200   -1337.6007    85.417419   -1252.1833    1326.9436    71900.906    10.451301   0.14706573 
   42300   -1334.9962    83.488505   -1251.5077    1296.9783    73141.874    10.451301   0.14088928 
   42400   -1341.6958    78.263148   -1263.4327    1215.8033     67910.86    10.451301   0.13266635 
   42500   -1338.9556    79.727322   -1259.2283     1238.549     70373.27    10.451301   0.13829007 
   42600   -1335.8235    81.071563   -1254.7519    1259.4315    72369.168    10.451301    0.1503389 
   42700   -1336.6852    89.583669   -1247.1015    1391.6655    73453.764    10.451301   0.15186064 
   42800    -1339.657    86.384636   -1253.2724    1341.9691    70153.742    10.451301   0.15784875 
   42900   -1334.4085    79.870686   -1254.5378    1240.7761    73984.268    10.451301   0.16087166 
   43000   -1338.5906     87.27994   -1251.3106    1355.8775    71012.816    10.451301   0.13274239 
   43100   -1341.1388    82.303054   -1258.8358    1278.5625    68463.674    10.451301   0.13001768 
   43200   -1337.1544    85.281924   -1251.8725    1324.8387    71738.818    10.451301   0.14140342 
   43300   -1332.6657    85.404297   -1247.2614    1326.7398    74787.346    10.451301   0.15057038 
   43400   -1336.9473    85.727105   -1251.2202    1331.7545    72647.642    10.451301   0.14607055 
   43500   -1344.5878     83.78977    -1260.798    1301.6584    66164.641    10.451301   0.12707237 
   43600   -1341.5832    78.748481   -1262.8348    1223.3429    68316.649    10.451301   0.13578316 
   43700   -1338.0064    86.441842   -1251.5645    1342.8578    71655.048    10.451301   0.14867615 
   43800   -1335.4385    78.871011   -1256.5675    1225.2464    72021.742    10.451301   0.15612786 
   43900   -1337.2367    88.133288   -1249.1034    1369.1341    71915.499    10.451301   0.16190027 
   44000   -1337.1729    80.304371   -1256.8685    1247.5134    71111.573    10.451301   0.17274489 
   44100    -1340.766    86.350949   -1254.4151    1341.4458    70029.266    10.451301   0.14704938 
   44200   -1338.1318     81.78103   -1256.3508     1270.453    71060.635    10.451301   0.13493537 
   44300   -1335.4567    89.962012   -1245.4947     1397.543    74003.694    10.451301   0.12781576 
   44400   -1336.0174    82.197281   -1253.8201    1276.9194    71648.307    10.451301    0.1406718 
   44500   -1338.8201     81.83908    -1256.981    1271.3548    70413.214    10.451301   0.14974045 
   44600   -1339.2415    84.366538   -1254.8749    1310.6184    70433.012    10.451301   0.14423302 
   44700   -1334.8621    88.206686   -1246.6554    1370.2743    73780.205    10.451301   0.14309289 
   44800   -1338.2514     79.84399   -1258.4074    1240.3614    70717.393    10.451301   0.14044285 
   44900    -1341.458    84.713418   -1256.7445    1316.0071    69280.085    10.451301   0.14162999 
   45000   -1339.1582     88.19589   -1250.9623    1370.1066    71674.091    10.451301   0.13922174 
   45100   -1339.4792    82.896879   -1256.5823    1287.7875    69802.938    10.451301   0.14742451 
   45200   -1340.4626     83.38689   -1257.0757    1295.3997    69608.413    10.451301   0.15025791 
   45300   -1335.8954    85.280321   -1250.6151    1324.8138    72163.449    10.451301   0.15113355 
   45400    -1333.146    81.142082   -1252.0039     1260.527    73847.648    10.451301    0.1498041 
   45500   -1342.2294    88.100035   -1254.1294    1368.6175    69210.948    10.451301   0.14011536 
   45600   -1338.4853    81.360748   -1257.1245     1263.924     69830.13    10.451301   0.14472328 
   45700   -1335.2343    85.091487   -1250.1428    1321.8803     72991.35    10.451301   0.14849937 
   45800   -1336.2062    85.329398   -1250.8768    1325.5762    72199.725    10.451301   0.15130671 
   45900   -1337.9562    83.250987   -1254.7053    1293.2885    71248.003    10.451301   0.14758334 
   46000   -1341.5088     77.92922   -1263.5795    1210.6158    68061.757    10.451301   0.16000496 
   46100   -1340.5851    82.638483   -1257.9466    1283.7734    69207.211    10.451301   0.16951118 
   46200   -1333.7477    80.223941   -1253.5237    1246.2639    73698.124    10.451301   0.16425284 
   46300   -1335.5983    83.143588   -1252.4547    1291.6201    72918.724    10.451301     0.166657 
   46400   -1334.3286    78.206114   -1256.1225    1214.9173     72981.01    10.451301    0.1682832 
   46500   -1335.6655    79.870063   -1255.7955    1240.7665    72374.802    10.451301    0.1555375 
   46600   -1340.2888    88.660019   -1251.6288    1377.3168    70829.087    10.451301   0.15482393 
   46700   -1335.0554     75.95799   -1259.0974    1179.9931    72258.228    10.451301   0.16673986 
   46800    -1336.187    84.180896   -1252.0061    1307.7344     73007.52    10.451301    0.1555859 
   46900   -1337.9115    78.473811   -1259.4377    1219.0759    70415.374    10.451301    0.1485118 
   47000   -1335.8767    87.007304   -1248.8694    1351.6422    73023.189    10.451301   0.15494538 
   47100    -1336.997    83.463397   -1253.5336    1296.5882    71998.248    10.451301   0.16646681 
   47200   -1338.4433    86.635547   -1251.8077     1345.867    70894.666    10.451301   0.15879751 
   47300   -1329.2969    76.522812   -1252.7741    1188.7675    76542.778    10.451301   0.16894249 
   47400    -1340.736    78.423474   -1262.3125     1218.294    68406.468    10.451301   0.15462868 
   47500   -1344.9156    85.385519   -1259.5301     1326.448    66398.858    10.451301   0.13888901 
   47600   -1332.4265    79.405505    -1253.021    1233.5496      74161.7    10.451301   0.16178262 
   47700   -1334.3023    83.144685   -1251.1576    1291.6371    73597.182    10.451301    0.1657822 
   47800   -1337.8445    83.144304   -1254.7002    1291.6312    70726.532    10.451301   0.15796996 
   47900   -1343.5749    81.222712   -1262.3522    1261.7796    66632.929    10.451301   0.14994451 
   48000   -1335.9042    84.060196   -1251.8441    1305.8594    72945.992    10.451301   0.15173475 
   48100   -1337.0583    82.798857   -1254.2595    1286.2647    71346.365    10.451301   0.15956648 
   48200   -1340.4359    83.963926   -1256.4719    1304.3639    69895.871    10.451301   0.16014009 
   48300   -1332.6334    85.600637   -1247.0328    1329.7899    75263.676    10.451301   0.16583839 
   48400    -1335.876    85.575195   -1250.3008    1329.3946     72438.34    10.451301   0.17026467 
   48500   -1343.8998    88.219687   -1255.6801    1370.4763    67312.406    10.451301   0.16060681 
   48600   -1342.3717    89.065934   -1253.3058    1383.6226    68560.751    10.451301    0.1571892 
   48700   -1334.4271    85.586353   -1248.8407     1329.568    74149.663    10.451301   0.15945684 
   48800   -1336.6339    82.522023   -1254.1119    1281.9642    72705.412    10.451301   0.16331519 
   48900   -1338.1306    84.643313   -1253.4873     1314.918    71146.184    10.451301   0.16561908 
   49000   -1333.9736    83.591496   -1250.3821    1298.5782    73961.392    10.451301   0.16942083 
   49100   -1337.5248    85.719477   -1251.8053     1331.636     72393.99    10.451301   0.16753739 
   49200   -1339.6396    79.787082   -1259.8525    1239.4774    69987.865    10.451301   0.16730434 
   49300   -1336.7842    85.425313   -1251.3588    1327.0662    72496.935    10.451301   0.15341219 
   49400   -1339.4201    84.890976   -1254.5291    1318.7654    71307.322    10.451301   0.14049247 
   49500   -1344.4587    81.199647    -1263.259    1261.4213    66318.924    10.451301   0.14475381 
   49600   -1334.7417    79.416684    -1255.325    1233.7233    72801.865    10.451301   0.17225809 
   49700   -1335.3175    86.826684   -1248.4908    1348.8363    73226.543    10.451301   0.16407102 
   49800   -1335.9003    77.720895   -1258.1794    1207.3795    71892.556    10.451301   0.16205323 
   49900   -1338.5284    80.986057   -1257.5423    1258.1032    70962.395    10.451301   0.15332878 
   50000   -1332.5468    85.763265   -1246.7835    1332.3162     74737.94    10.451301   0.14829084 
   50100   -1335.1358    81.273518   -1253.8623    1262.5689    72902.394    10.451301   0.15582944 
   50200   -1333.5421    79.465677   -1254.0764    1234.4844    73696.974    10.451301   0.16515164 
   50300   -1331.9011    82.995714   -1248.9053    1289.3229    75666.013    10.451301   0.16938728 
   50400   -1338.3726    85.860229   -1252.5124    1333.8226    71052.183    10.451301   0.16938083 
   50500   -1339.1819     82.93336   -1256.2486    1288.3542    69774.899    10.451301   0.16196779 
   50600   -1334.9688    89.310434   -1245.6583    1387.4208    73870.052    10.451301   0.14935549 
   50700   -1342.4506    87.359493   -1255.0911    1357.1134    68585.961    10.451301   0.14713818 
   50800   -1342.7621    86.724567   -1256.0375    1347.2499    67947.973    10.451301   0.14460941 
   50900   -1340.3961    81.362003   -1259.0341    1263.9435    69699.345    10.451301   0.15068147 
   51000   -1334.8095    88.961422   -1245.8481     1381.999    74276.162    10.451301   0.16078841 
   51100   -1339.3553    87.018167   -1252.3372    1351.8109     70942.51    10.451301   0.15665082 
   51200   -1342.5721    83.198454   -1259.3736    1292.4724    68101.006    10.451301   0.14525682 
   51300   -1336.0884    82.386801   -1253.7016    1279.8635    72408.206    10.451301   0.15017954 
   51400   -1328.7963    84.951496   -1243.8448    1319.7056    78032.388    10.451301   0.15538975 
   51500   -1338.0086    83.783112   -1254.2255    1301.5549     71617.75    10.451301   0.15130778 
   51600   -1337.4067    80.351641    -1257.055    1248.2477    71182.405    10.451301   0.15798068 
   51700   -1334.5296    84.944369   -1249.5853    1319.5949    73043.114    10.451301    0.1553146 
   51800   -1340.6385    82.726669   -1257.9119    1285.1433    69268.232    10.451301    0.1611313 
   51900   -1338.8976    80.304352   -1258.5933    1247.5131    70051.585    10.451301   0.16096616 
   52000   -1334.9473    80.860992   -1254.0864    1256.1604    73474.202    10.451301   0.15809848 
   52100   -1338.0835    83.971961   -1254.1116    1304.4887    71007.329    10.451301   0.15992023 
   52200   -1342.3264    81.898324    -1260.428    1272.2751     67704.45    10.451301   0.16007155 
   52300   -1331.5453    82.921962   -1248.6233    1288.1771    74962.464    10.451301   0.17034898 
   52400   -1333.3088    83.713954   -1249.5948    1300.4806    75225.751    10.451301   0.16294333 
   52500   -1340.5677    82.809999   -1257.7577    1286.4378      69090.8    10.451301   0.15765434 
   52600   -1341.2403    84.520891   -1256.7194    1313.0162    69140.623    10.451301   0.14925455 
   52700   -1334.4235    84.921535    -1249.502    1319.2401    74347.011    10.451301   0.15409975 
   52800   -1336.5786    80.751252   -1255.8274    1254.4556     71999.07    10.451301   0.16156516 
   52900    -1342.852    78.398007   -1264.4539    1217.8983    66773.261    10.451301   0.15586192 
   53000   -1339.2753    81.076506   -1258.1988    1259.5083    69300.597    10.451301   0.15783928 
   53100   -1334.1233    84.627325    -1249.496    1314.6696     73713.07    10.451301   0.16381683 
   53200   -1335.0933    81.323501   -1253.7698    1263.3453    73188.364    10.451301   0.16656279 
   53300   -1337.3002    82.560282   -1254.7399    1282.5585     71124.98    10.451301   0.16204412 
   53400    -1341.408    82.508422   -1258.8996    1281.7529    68389.273    10.451301   0.16496064 
   53500   -1339.4685    81.275683   -1258.1928    1262.6025    69188.079    10.451301    0.1700308 
   53600   -1338.6853    81.448215    -1257.237    1265.2827    70049.113    10.451301   0.15804221 
   53700   -1335.8317    86.134337   -1249.6973    1338.0808    72711.706    10.451301   0.15907509 
   53800   -1334.1314    81.366391    -1252.765    1264.0116    74164.632    10.451301   0.17191511 
   53900   -1340.0575    85.611024   -1254.4465    1329.9512    69626.756    10.451301    0.1652794 
   54000   -1335.8045    80.210573   -1255.5939    1246.0562    72227.659    10.451301   0.17257834 
   54100   -1334.9941    82.832642   -1252.1615    1286.7896    72860.686    10.451301   0.16960797 
   54200   -1334.1027     85.08342   -1249.0193     1321.755    74431.471    10.451301   0.16394318 
   54300   -1335.2483    88.807998   -1246.4403    1379.6156    73276.122    10.451301   0.16702205 
   54400   -1339.7833    83.905829   -1255.8775    1303.4613    69684.281    10.451301   0.16186141 
   54500   -1339.2028    86.991592   -1252.2112    1351.3981     70200.59    10.451301   0.16698673 
   54600    -1336.638     79.07035   -1257.5677    1228.3431    71423.219    10.451301   0.16042732 
   54700   -1344.8425    85.046434   -1259.7961    1321.1804    66251.114    10.451301   0.13900177 
   54800   -1336.4019    85.046354   -1251.3555    1321.1792    72195.138    10.451301   0.14902815 
   54900   -1334.0476    89.061016   -1244.9866    1383.5462    74582.462    10.451301   0.15381801 
   55000   -1338.2295    84.638328   -1253.5911    1314.8406     71257.43    10.451301   0.15066758 
   55100   -1339.1688    84.659023   -1254.5098    1315.1621     71161.92    10.451301   0.15633867 
   55200   -1339.0824    84.826825   -1254.2556    1317.7688     71252.99    10.451301   0.15037756 
   55300    -1340.827    79.261745   -1261.5652    1231.3164    68708.569    10.451301   0.14729472 
   55400   -1338.4612    86.505817   -1251.9554    1343.8517     70584.13    10.451301   0.15559662 
   55500   -1335.8147    87.188413   -1248.6263    1354.4557    73209.732    10.451301   0.16409318 
   55600   -1336.1804    79.102004   -1257.0784    1228.8348    71908.903    10.451301   0.16561276 
   55700   -1342.8642    85.445118   -1257.4191    1327.3739    68336.792    10.451301   0.14320414 
   55800   -1340.9677    85.535323   -1255.4324    1328.7752    68793.654    10.451301   0.14851874 
   55900   -1330.8353    87.009878   -1243.8255    1351.6822    76344.275    10.451301   0.17165247 
   56000   -1328.5496    80.808906   -1247.7407    1255.3512    77389.071    10.451301    0.1759993 
   56100   -1335.7712    79.352277    -1256.419    1232.7228    71712.157    10.451301   0.16092753 
   56200   -1340.1433    84.525717   -1255.6176    1313.0912    70190.457    10.451301   0.15629222 
   56300   -1339.1105    86.238143   -1252.8723    1339.6934    70510.673    10.451301   0.16018504 
   56400   -1334.7014    80.620758   -1254.0806    1252.4284    73497.542    10.451301   0.16954275 
   56500   -1340.7543    76.477623   -1264.2767    1188.0655    68810.038    10.451301   0.16488752 
   56600   -1338.4071    81.604513   -1256.8026    1267.7108    70815.393    10.451301   0.16218587 
   56700   -1334.6991    83.206873   -1251.4922    1292.6032    73985.036    10.451301   0.16580754 
   56800   -1333.5532    86.119472   -1247.4337    1337.8499     74685.95    10.451301   0.17196724 
   56900    -1340.311    85.306825   -1255.0042    1325.2255    70092.035    10.451301   0.16473882 
   57000   -1343.8125    81.488463   -1262.3241     1265.908    67201.673    10.451301   0.14018424 
   57100   -1334.2236    84.488685   -1249.7349    1312.5159    74320.268    10.451301   0.15332422 
   57200   -1333.8684     84.81952   -1249.0488    1317.6554    74204.817    10.451301   0.17230524 
   57300    -1337.153    84.402493   -1252.7505    1311.1769    71531.105    10.451301   0.16804522 
   57400   -1334.6153    87.576106   -1247.0392    1360.4784     74381.72    10.451301   0.17013751 
   57500   -1335.2519    81.454644   -1253.7972    1265.3826     73061.86    10.451301   0.16348859 
   57600   -1341.7839    85.148885    -1256.635     1322.772    68598.011    10.451301    0.1414977 
   57700   -1341.7235    80.195102   -1261.5284    1245.8159    68322.269    10.451301   0.15117487 
   57800   -1336.7244     81.67789   -1255.0465    1268.8507    71116.288    10.451301   0.15909998 
   57900   -1334.7963    85.028085   -1249.7682    1320.8954    73738.898    10.451301   0.16319027 
   58000   -1341.6459    80.145211   -1261.5007    1245.0408    68378.089    10.451301   0.16641315 
   58100   -1339.8894    85.762667   -1254.1267     1332.307    69640.647    10.451301   0.15445967 
   58200   -1339.3187    89.596334   -1249.7223    1391.8623    70510.874    10.451301   0.16056775 
   58300    -1339.396    84.203669   -1255.1923    1308.0882     70682.78    10.451301   0.17356144 
   58400    -1339.414    89.575286   -1249.8387    1391.5353    70453.286    10.451301   0.16871226 
   58500   -1337.3719    84.192162   -1253.1798    1307.9095    71484.108    10.451301   0.16371982 
   58600   -1340.3232    78.445419   -1261.8778    1218.6349    69152.907    10.451301   0.15828105 
   58700   -1335.0322    81.606996   -1253.4252    1267.7494    73284.135    10.451301   0.16292618 
   58800   -1329.4556    90.286147   -1239.1694    1402.5784     78018.53    10.451301   0.17099107 
   58900   -1335.7798    89.272832   -1246.5069    1386.8367     72766.03    10.451301   0.16866416 
   59000    -1339.414    85.782161   -1253.6318    1332.6098    70443.356    10.451301   0.16100986 
   59100   -1341.6375    80.372907   -1261.2646     1248.578    67405.312    10.451301   0.15567118 
   59200   -1339.8443    85.966179   -1253.8781    1335.4685    69780.825    10.451301   0.15615644 
   59300   -1332.9121    84.026447   -1248.8857    1305.3351    75317.665    10.451301   0.16833327 
   59400   -1335.0998    78.332631   -1256.7672    1216.8827    72037.857    10.451301   0.17420558 
   59500   -1339.3812    85.778254    -1253.603    1332.5491    70083.648    10.451301   0.17085251 
   59600   -1338.4838    81.633388   -1256.8504    1268.1594    70146.028    10.451301   0.17203057 
   59700   -1339.6427    86.108752   -1253.5339    1337.6833    69902.013    10.451301    0.1645246 
   59800   -1333.3247    82.701824   -1250.6229    1284.7573    74338.331    10.451301   0.17050123 
   59900   -1331.7496    81.201196   -1250.5484    1261.4454    75421.049    10.451301   0.16643245 
   60000   -1340.2577    84.589115   -1255.6686     1314.076    69939.465    10.451301   0.14724653 
   60100   -1336.8222    80.844635   -1255.9776    1255.9062    71725.895    10.451301   0.14479952 
   60200   -1335.1275    76.963988   -1258.1636    1195.6211    73257.249    10.451301   0.15426185 
   60300   -1334.7928     79.20548   -1255.5873    1230.4423    72473.833    10.451301   0.15216744 
   60400   -1332.5421     82.90469   -1249.6374    1287.9088    75078.483    10.451301   0.14864871 
   60500   -1337.0965    77.570263   -1259.5262    1205.0395    71517.352    10.451301   0.14710705 
   60600   -1338.2852    78.733511   -1259.5517    1223.1103    70278.341    10.451301   0.14857769 
   60700   -1338.4206     89.08143   -1249.3392    1383.8633    71766.838    10.451301   0.13761949 
   60800   -1337.4615    83.720481    -1253.741     1300.582    71438.247    10.451301   0.13611125 
   60900   -1339.2849     78.58841   -1260.6965    1220.8562    69147.518    10.451301   0.13435002 
   61000   -1343.3231    86.852485   -1256.4706    1349.2371    67285.156    10.451301   0.13362041 
   61100   -1336.1062    88.165206    -1247.941    1369.6299     73505.02    10.451301   0.15612289 
   61200   -1333.7115     82.39863   -1251.3129    1280.0473    73536.104    10.451301   0.15901339 
   61300   -1345.4567    83.684589   -1261.7721    1300.0244     65514.03    10.451301   0.14199934 
   61400   -1339.3901    82.058925   -1257.3312      1274.77    69775.413    10.451301   0.15573152 
   61500   -1337.2774    84.962595   -1252.3148     1319.878    72108.519    10.451301   0.15348591 
   61600   -1338.6257    85.228658    -1253.397    1324.0112    70895.705    10.451301   0.14617941 
   61700   -1341.4108    81.791586   -1259.6192     1270.617    68675.446    10.451301   0.15074466 
   61800   -1334.9772    86.236544   -1248.7407    1339.6685    74119.602    10.451301   0.15617262 
   61900   -1336.2632    80.997915   -1255.2653    1258.2874    71672.398    10.451301   0.16035598 
   62000   -1337.4382    84.745536   -1252.6927     1316.506    71481.139    10.451301   0.14841682 
   62100    -1330.722    82.891879   -1247.8301    1287.7098    76928.817    10.451301   0.15406289 
   62200   -1338.9701    85.555539   -1253.4146    1329.0893      70729.8    10.451301   0.15588583 
   62300   -1338.6561    80.321447   -1258.3347    1247.7786    70126.273    10.451301   0.16575955 
   62400   -1336.0828    85.951588   -1250.1312    1335.2418    72737.015    10.451301   0.15648085 
   62500   -1339.5291    83.814293   -1255.7148    1302.0393    69759.098    10.451301   0.15042241 
   62600   -1338.9481    84.453522   -1254.4945    1311.9696    70386.795    10.451301   0.15288549 
   62700    -1334.387    85.740515   -1248.6465    1331.9628    74057.531    10.451301   0.16941631 
   62800    -1333.717    83.940121   -1249.7769     1303.994    73736.703    10.451301    0.1632544 
   62900   -1340.5393    82.166193   -1258.3731    1276.4364    69437.257    10.451301   0.13861945 
   63000   -1341.4076    86.595868   -1254.8117    1345.2506    69550.789    10.451301   0.13379056 
   63100   -1341.7508    80.125349   -1261.6255    1244.7323    67309.926    10.451301   0.14940771 
   63200   -1344.9914    86.047895   -1258.9435    1336.7379    66667.052    10.451301   0.15198339 
   63300   -1334.5356     82.74853   -1251.7871    1285.4829    73772.765    10.451301   0.16301083 
   63400   -1335.0377    84.491173   -1250.5465    1312.5545    73118.925    10.451301   0.15364685 
   63500   -1340.2803    78.314993   -1261.9653    1216.6087    69263.067    10.451301   0.15029706 
   63600   -1335.6196    82.486211   -1253.1334    1281.4078    72905.202    10.451301    0.1556002 
   63700   -1338.9941     85.51555   -1253.4785     1328.468    70287.334    10.451301   0.15152143 
   63800   -1340.0074    85.092859   -1254.9145    1321.9016    70395.944    10.451301   0.14275279 
   63900   -1338.4216     83.08957   -1255.3321    1290.7809    70835.534    10.451301    0.1531038 
   64000   -1335.9117    85.640582   -1250.2711    1330.4104    73677.243    10.451301   0.16432969 
   64100    -1331.547    88.169186   -1243.3778    1369.6918    76353.763    10.451301   0.15842593 
   64200   -1344.4514    86.801429     -1257.65    1348.4439    66885.648    10.451301    0.1380934 
   64300   -1342.3315    85.082803   -1257.2487    1321.7454     68613.03    10.451301   0.14438315 
   64400   -1332.8117    85.730394   -1247.0813    1331.8056    74701.798    10.451301   0.16538233 
   64500   -1332.0217    79.879616   -1252.1421    1240.9149    74713.848    10.451301   0.16659349 
   64600   -1341.1997    83.120083   -1258.0796    1291.2549    69669.207    10.451301   0.15882577 
   64700   -1338.8255    78.535851   -1260.2896    1220.0397    69942.575    10.451301   0.16186467 
   64800   -1334.7352    85.314624   -1249.4206    1325.3467    73536.948    10.451301   0.16762211 
   64900   -1336.7836    81.658123   -1255.1255    1268.5436    72188.573    10.451301   0.16007073 
   65000   -1343.4161     87.00387   -1256.4122    1351.5888     67010.39    10.451301   0.14043826 
   65100   -1343.4786    85.842739   -1257.6358    1333.5509    67763.335    10.451301   0.14519609 
   65200   -1331.6793    83.440416   -1248.2389    1296.2312    76223.553    10.451301   0.16421272 
   65300   -1336.4591    89.341811   -1247.1173    1387.9083    73038.774    10.451301    0.1513632 
   65400   -1344.7493    88.953753   -1255.7956    1381.8799    67225.908    10.451301   0.15375275 
   65500   -1342.5383    88.155514   -1254.3828    1369.4794    68349.855    10.451301   0.15064095 
   65600     -1341.42    83.863358   -1257.5566    1302.8016    68490.636    10.451301   0.14961991 
   65700   -1340.7471    87.690042   -1253.0571    1362.2484    70081.719    10.451301   0.14604534 
   65800   -1340.7812    83.663377   -1257.1178    1299.6949     69734.36    10.451301   0.15259528 
   65900   -1337.5538     86.28826   -1251.2656    1340.4719    72091.935    10.451301   0.15262897 
   66000   -1330.7941    79.207462   -1251.5866    1230.4731    76191.957    10.451301   0.15233926 
   66100   -1335.9363    83.080443   -1252.8558    1290.6391    72451.655    10.451301   0.15070691 
   66200   -1340.0409    77.593479   -1262.4475    1205.4002    69033.496    10.451301   0.14903013 
   66300   -1339.2297    86.674692    -1252.555    1346.4751    70848.055    10.451301   0.14054528 
   66400   -1337.8187     84.47542   -1253.3432    1312.3098    71642.565    10.451301   0.16101761 
   66500   -1344.1171    84.230533   -1259.8866    1308.5056    67054.805    10.451301   0.16386295 
   66600   -1337.1255    83.280454    -1253.845    1293.7462    71154.416    10.451301    0.1739347 
   66700   -1328.8965    80.031822   -1248.8647    1243.2794    76236.629    10.451301   0.18998843 
   66800   -1333.0677    90.420023   -1242.6477    1404.6581    75410.339    10.451301   0.17623181 
   66900     -1341.75    84.064941    -1257.685    1305.9331    69277.968    10.451301    0.1640013 
   67000   -1342.6815    86.972443    -1255.709    1351.1006    67577.596    10.451301   0.16091611 
   67100   -1335.4098     86.13218   -1249.2776    1338.0473    73344.613    10.451301    0.1642776 
   67200   -1327.1442    86.791142    -1240.353    1348.2841    79214.638    10.451301   0.16939607 
   67300   -1337.7526     86.73725   -1251.0153    1347.4469    71671.813    10.451301   0.15671558 
   67400   -1337.3302     77.81158   -1259.5187    1208.7883    70776.991    10.451301   0.16314073 
   67500   -1335.2952    81.875196   -1253.4201    1271.9158    73021.413    10.451301   0.17435305 
   67600   -1332.9605    88.125854   -1244.8346    1369.0186    75865.317    10.451301   0.17125917 
   67700   -1336.7364      84.0298   -1252.7066    1305.3872    71738.329    10.451301   0.16514559 
   67800    -1336.469    79.734697   -1256.7343    1238.6636    72419.549    10.451301   0.16024375 
   67900   -1332.6037    85.913837   -1246.6899    1334.6554     75368.22    10.451301     0.163572 
   68000   -1336.1001    83.274966   -1252.8251     1293.661    73318.981    10.451301   0.15761098 
   68100   -1337.5816    79.223171   -1258.3584    1230.7171    71635.866    10.451301   0.16347472 
   68200   -1330.6712    82.600062   -1248.0711    1283.1765    76073.878    10.451301   0.17904529 
   68300   -1333.4582    87.725328   -1245.7328    1362.7965    74849.091    10.451301   0.17484461 
   68400    -1336.427    84.677002     -1251.75    1315.4413    72475.383    10.451301   0.16086174 
   68500   -1343.7125    82.224472    -1261.488    1277.3418    66983.346    10.451301   0.13960579 
   68600   -1339.9391    84.421516   -1255.5176    1311.4724    70499.758    10.451301   0.15616449 
   68700   -1337.2547    86.524267   -1250.7304    1344.1383    71796.946    10.451301   0.16936842 
   68800   -1340.3599    80.779458   -1259.5804    1254.8937    68718.829    10.451301   0.17094844 
   68900   -1340.7699    84.209338   -1256.5606    1308.1763    69744.098    10.451301   0.15147354 
   69000    -1339.842    84.288062   -1255.5539    1309.3992    70198.526    10.451301   0.14831493 
   69100   -1343.5422    93.012404   -1250.5298    1444.9303    68416.848    10.451301   0.14774295 
   69200   -1336.8762    80.626187     -1256.25    1252.5127    71211.903    10.451301   0.15245582 
   69300   -1338.7726    81.677352   -1257.0952    1268.8424    70721.576    10.451301   0.15255656 
   69400    -1338.228    90.161064    -1248.067    1400.6352    71506.948    10.451301   0.14569171 
   69500   -1337.2648     81.35493   -1255.9099    1263.8336    71722.629    10.451301   0.15406612 
   69600   -1338.2895     82.37999   -1255.9095    1279.7577    70208.666    10.451301   0.15568335 
   69700   -1342.0791    88.132525   -1253.9466    1369.1223     69177.94    10.451301   0.15399093 
   69800   -1333.4696    87.650098   -1245.8195    1361.6278    75155.538    10.451301   0.16981717 
   69900   -1332.6664    83.483282   -1249.1831    1296.8971    74686.582    10.451301   0.18172543 
   70000   -1336.7177    79.644935   -1257.0728    1237.2691    71263.569    10.451301   0.17249728 
   70100   -1344.6998    88.925129   -1255.7747    1381.4352    67047.248    10.451301   0.15888822 
   70200   -1338.2697     80.73201   -1257.5377    1254.1566    70167.469    10.451301   0.15949317 
   70300   -1338.9398    85.050441   -1253.8893    1321.2427    71085.676    10.451301   0.15004038 
   70400   -1343.0046    82.031614    -1260.973    1274.3458    67288.596    10.451301   0.15424587 
   70500   -1337.1633    85.196257    -1251.967    1323.5079    71958.815    10.451301   0.16784114 
   70600   -1333.5191    83.644712   -1249.8743    1299.4049     74411.72    10.451301   0.17671082 
   70700   -1338.3932    83.046122   -1255.3471    1290.1059    70643.609    10.451301   0.15936026 
   70800   -1336.7542     82.76415   -1253.9901    1285.7256    72049.242    10.451301   0.14829925 
   70900    -1340.977    89.395027   -1251.5819     1388.735    69527.397    10.451301   0.15026505 
   71000   -1344.3055    87.320721   -1256.9848     1356.511    67507.889    10.451301   0.15069877 
   71100   -1339.0873    80.227352   -1258.8599    1246.3169    70277.082    10.451301   0.15923502 
   71200   -1331.8739    84.625908    -1247.248    1314.6476    75009.228    10.451301   0.17399612 
   71300   -1336.9663    85.577956   -1251.3883    1329.4375    72392.779    10.451301   0.17023054 
   71400   -1337.0284    82.324213   -1254.7042    1278.8912    71514.393    10.451301    0.1555413 
   71500   -1337.9018    77.010018   -1260.8918    1196.3362    70671.816    10.451301   0.14783312 
   71600   -1338.9309    81.786606   -1257.1443    1270.5396    70289.217    10.451301    0.1430684 
   71700   -1335.3283    82.138692   -1253.1896    1276.0092    72892.975    10.451301   0.15031599 
   71800   -1330.1113    82.267604   -1247.8437    1278.0118    76687.851    10.451301   0.16186545 
   71900   -1339.6446    81.543428   -1258.1011    1266.7619    70086.103    10.451301   0.15620611 
   72000   -1336.8112    78.094809   -1258.7164    1213.1882    70884.292    10.451301   0.15882826 
   72100   -1333.1739    82.332357   -1250.8415    1279.0177    74605.189    10.451301   0.17135409 
   72200   -1337.5779    86.749978   -1250.8279    1347.6446    71648.071    10.451301   0.15096976 
   72300   -1344.1676    86.425272   -1257.7424    1342.6004    66925.822    10.451301   0.13939786 
   72400   -1341.7439    87.575376   -1254.1685    1360.4671     68579.38    10.451301   0.14784486 
   72500   -1334.1035    77.573204   -1256.5303    1205.0852    73616.752    10.451301   0.16789205 
   72600   -1332.4258    80.966299   -1251.4595    1257.7963    74522.485    10.451301   0.16181577 
   72700   -1337.5944    78.573749   -1259.0206    1220.6285    71087.748    10.451301    0.1572049 
   72800   -1335.6863    83.931274   -1251.7551    1303.8566     72640.12    10.451301   0.15189235 
   72900   -1331.0881     82.25411    -1248.834    1277.8022    75595.646    10.451301   0.16235969 
   73000   -1338.2705     79.33239   -1258.9381    1232.4138    70469.498    10.451301   0.16535019 
   73100   -1338.9244     84.73054   -1254.1939    1316.2731    70359.334    10.451301   0.15851874 
   73200   -1336.5422    80.960838   -1255.5814    1257.7114     71695.25    10.451301   0.15890483 
   73300   -1337.5631    86.276869   -1251.2862     1340.295    71350.669    10.451301   0.15392615 
   73400   -1341.3741    80.910791   -1260.4633     1256.934    68323.326    10.451301   0.15475166 
   73500    -1345.257    86.522808   -1258.7342    1344.1156    66236.408    10.451301    0.1516709 
   73600   -1335.6905      81.3972   -1254.2933    1264.4902    72214.523    10.451301   0.16399296 
   73700   -1338.5468    87.078511   -1251.4683    1352.7483    71310.749    10.451301   0.15431662 
   73800   -1338.4687    82.612815   -1255.8559    1283.3746    71450.879    10.451301   0.15324217 
   73900    -1335.641    85.944185   -1249.6968    1335.1268     73332.76    10.451301   0.15606416 
   74000   -1337.6719    81.275769   -1256.3961    1262.6038    71210.339    10.451301   0.16389163 
   74100    -1340.638    82.489909   -1258.1481    1281.4653    69680.757    10.451301   0.15752251 
   74200   -1337.7342    85.221803   -1252.5124    1323.9047    71602.104    10.451301   0.15931199 
   74300   -1337.9495    83.639146   -1254.3103    1299.3185    71295.779    10.451301   0.15944508 
   74400   -1335.8106    91.019024   -1244.7916    1413.9635      73599.2    10.451301    0.1483785 
   74500   -1341.0191    84.990988   -1256.0281    1320.3191    69319.491    10.451301   0.13982733 
   74600   -1338.8507    79.260249   -1259.5905    1231.2931    70661.387    10.451301   0.14708593 
   74700   -1336.6407    81.850941   -1254.7897     1271.539    71535.254    10.451301   0.16376777 
   74800   -1333.9513    84.996427   -1248.9549    1320.4036    74144.235    10.451301   0.17146778 
   74900   -1334.7444    85.152918   -1249.5914    1322.8346    74076.349    10.451301   0.15685953 
   75000   -1342.0207    84.105854   -1257.9149    1306.5687    68256.226    10.451301   0.14236782 
   75100   -1342.7256    83.970415   -1258.7552    1304.4647    67649.277    10.451301    0.1500577 
   75200   -1337.0102     85.73181   -1251.2784    1331.8276    72476.307    10.451301   0.15560357 
   75300   -1334.9547    81.585318   -1253.3694    1267.4126    73003.258    10.451301   0.15285526 
   75400   -1337.8972    84.084634   -1253.8125     1306.239    71353.433    10.451301   0.15377088 
   75500   -1340.7646    81.688106   -1259.0765    1269.0094    68973.806    10.451301   0.15591629 
   75600   -1340.8921    85.656015   -1255.2361    1330.6501    69668.407    10.451301   0.14619248 
   75700   -1337.8804    85.540949   -1252.3394    1328.8626    70960.584    10.451301   0.15967573 
   75800    -1339.265    85.653351   -1253.6116    1330.6088    70415.709    10.451301   0.15683812 
   75900   -1341.3028     82.83189   -1258.4709    1286.7779    68457.656    10.451301   0.14348683 
   76000   -1340.3339    76.835153   -1263.4988    1193.6197    68718.134    10.451301   0.14869714 
   76100   -1335.6007    81.788894   -1253.8118    1270.5751    72584.278    10.451301   0.15283828 
   76200    -1334.413    84.395125   -1250.0179    1311.0625    73661.537    10.451301   0.15635191 
   76300   -1337.1144    78.068803   -1259.0456    1212.7842    70567.526    10.451301   0.15405005 
   76400   -1340.0653    85.036143   -1255.0292    1321.0205    70076.127    10.451301   0.14561874 
   76500   -1341.0044    81.504208   -1259.5002    1266.1526     69385.61    10.451301   0.15008974 
   76600   -1334.6371    83.896644   -1250.7404    1303.3186    73202.613    10.451301   0.15971309 
   76700   -1332.6179    82.399461   -1250.2184    1280.0602    74771.693    10.451301   0.15085961 
   76800   -1342.7984    80.032998   -1262.7654    1243.2976        66560    10.451301   0.14213306 
   76900   -1337.2452    81.454464   -1255.7908    1265.3798    72149.559    10.451301   0.14678268 
   77000   -1338.6412    87.242653   -1251.3985    1355.2983    71265.243    10.451301   0.15391156 
   77100   -1338.7422    85.716854   -1253.0254    1331.5953    71331.317    10.451301   0.15138992 
   77200   -1339.9833    83.267516   -1256.7157    1293.5452    69929.488    10.451301   0.14844277 
   77300   -1338.9987    82.753102   -1256.2456    1285.5539    70927.827    10.451301   0.15174302 
   77400   -1340.6516    86.278942   -1254.3726    1340.3272    69830.498    10.451301   0.14927932 
   77500   -1337.4113    81.479821   -1255.9314    1265.7738    71300.622    10.451301   0.15971527 
   77600   -1333.3587    78.919805   -1254.4389    1226.0044    74139.712    10.451301   0.16623232 
   77700   -1330.2885    85.429293   -1244.8592    1327.1281    77219.133    10.451301   0.17325035 
   77800   -1333.2421     79.80475   -1253.4374    1239.7518    74529.436    10.451301   0.17767495 
   77900   -1345.2454    80.948712   -1264.2967    1257.5231    65925.606    10.451301   0.14571602 
   78000   -1340.2551    82.127892   -1258.1272    1275.8414    69573.192    10.451301   0.14023796 
[...]
   81400   -1339.7582    85.875657   -1253.8826    1334.0622    70152.757    10.451301   0.16088949 
   81500   -1341.5342    82.964823   -1258.5694     1288.843    68668.861    10.451301   0.16027018 
   81600   -1338.0987    90.728502   -1247.3702    1409.4503    71867.638    10.451301   0.16647627 
   81700   -1334.0882    78.672634   -1255.4156    1222.1646    72302.652    10.451301   0.18574556 
   81800   -1337.2309    89.859238   -1247.3717    1395.9464     72390.43    10.451301   0.17763079 
   81900    -1337.307    83.513365   -1253.7937    1297.3645    70654.429    10.451301   0.17415057 
   82000   -1337.2223    84.442123   -1252.7801    1311.7926    71642.323    10.451301   0.16530197 
   82100    -1336.497    91.729501   -1244.7675    1425.0006    73178.161    10.451301   0.15371857 
   82200   -1336.1804    83.340147   -1252.8402    1294.6736    72820.963    10.451301    0.1590664 
   82300   -1337.6454    77.639916   -1260.0054    1206.1215    70544.569    10.451301   0.16110185 
   82400   -1341.5021    85.587731   -1255.9143    1329.5894    69514.021    10.451301   0.15766699 
   82500   -1338.9503    76.467638   -1262.4827    1187.9104    70123.545    10.451301    0.1645244 
   82600   -1336.5418    82.002306   -1254.5395    1273.8905    72184.102    10.451301   0.15967691 
   82700   -1338.3529    82.413406   -1255.9395    1280.2768    71024.248    10.451301   0.16391847 
   82800   -1339.7645    82.787545    -1256.977     1286.089    70323.438    10.451301   0.16464441 
   82900   -1331.6552    79.986766   -1251.6684    1242.5794    75186.012    10.451301   0.15668518 
   83000   -1337.7154     82.79642    -1254.919    1286.2269    71023.441    10.451301   0.15162224 
   83100   -1338.1775    83.383902   -1254.7936    1295.3533    70868.586    10.451301   0.15577252 
   83200   -1336.2854    78.467144   -1257.8182    1218.9724    71564.583    10.451301    0.1591261 
   83300   -1331.5263    82.634614   -1248.8916    1283.7132    75419.999    10.451301   0.16720043 
   83400    -1333.313    85.264982    -1248.048    1324.5755    74211.289    10.451301   0.17172111 
   83500   -1344.0534    85.510966   -1258.5424    1328.3968    66831.679    10.451301   0.15831574 
   83600   -1338.8735     81.57796   -1257.2955    1267.2983    70160.724    10.451301   0.16124415 
   83700    -1335.426    81.915155   -1253.5109    1272.5366    72877.251    10.451301   0.15171895 
   83800   -1334.4835    88.389009   -1246.0945    1373.1067    74343.464    10.451301    0.1612448 
   83900   -1331.7319    76.163205   -1255.5687    1183.1811    74349.768    10.451301   0.16922543 
   84000   -1336.0582    84.067693   -1251.9905    1305.9759     72274.97    10.451301   0.15041339 
   84100   -1342.2252    79.893683   -1262.3315    1241.1334    67873.963    10.451301   0.14979394 
   84200    -1338.764    82.702747   -1256.0612    1284.7717    70500.588    10.451301   0.16255349 
   84300   -1334.5393    78.309141   -1256.2302    1216.5178    72815.517    10.451301   0.17185102 
   84400   -1334.2847    84.863491   -1249.4212    1318.3384    73772.606    10.451301    0.1722778 
   84500   -1334.1509    79.423816   -1254.7271    1233.8341    72706.362    10.451301   0.16693648 
   84600   -1343.9501    88.655384   -1255.2947    1377.2448    67725.076    10.451301   0.15075122 
   84700   -1337.7564    80.142224   -1257.6142    1244.9944    71087.155    10.451301   0.17293775 
   84800   -1333.5632    81.780356   -1251.7829    1270.4425    74049.987    10.451301   0.16763237 
   84900   -1335.0701    88.143197   -1246.9269    1369.2881    73871.515    10.451301   0.15236755 
   85000   -1341.0017    85.179554   -1255.8221    1323.2484    69541.541    10.451301   0.15869387 
   85100   -1343.5798    85.819413   -1257.7604    1333.1885    67689.052    10.451301   0.16191173 
   85200   -1335.3241    87.430545   -1247.8936    1358.2171    73132.332    10.451301   0.16006687 
   85300   -1335.2279     85.71936   -1249.5086    1331.6342    74057.119    10.451301   0.16538493 
   85400   -1341.5095    82.122407   -1259.3871    1275.7562    68025.833    10.451301   0.15874918 
   85500   -1342.1491    86.988728   -1255.1604    1351.3536    69037.283    10.451301    0.1530577 
   85600   -1338.9964    82.491916   -1256.5045    1281.4965    69905.763    10.451301   0.16569935 
   85700   -1335.9237    82.292889   -1253.6308    1278.4046    72672.372    10.451301   0.17212429 
   85800   -1334.5695    88.560436   -1246.0091    1375.7698    73930.829    10.451301     0.182638 
   85900   -1335.6161    80.415587   -1255.2005    1249.2411     72194.62    10.451301   0.18264276 
   86000   -1340.6639    76.969173   -1263.6947    1195.7017    68389.299    10.451301    0.1558896 
   86100   -1339.1595    83.307848   -1255.8516    1294.1718    70844.923    10.451301   0.15496194 
   86200   -1331.6282    83.206041   -1248.4221    1292.5903    75579.591    10.451301   0.17443346 
   86300   -1333.1531    84.973723   -1248.1793    1320.0509    74741.175    10.451301   0.17345963 
   86400    -1339.626    83.452389   -1256.1736    1296.4172    69577.735    10.451301   0.16030182 
   86500   -1341.8048    79.025578   -1262.7793    1227.6475    67360.306    10.451301   0.16970674 
   86600   -1337.2591    85.827606   -1251.4315    1333.3158    71798.891    10.451301   0.16562919 
   86700   -1335.2022     83.50372   -1251.6984    1297.2146    72176.988    10.451301   0.16194323 
   86800   -1340.5466    79.562631   -1260.9839    1235.9906     68473.37    10.451301   0.15828862 
   86900   -1338.2737    82.943771   -1255.3299    1288.5159    71182.096    10.451301   0.15605399 
   87000   -1337.5105    81.744608   -1255.7659    1269.8872    71880.653    10.451301   0.16351581 
   87100        -1334    84.131905   -1249.8681    1306.9734    73962.179    10.451301   0.17323448 
   87200   -1339.2966    80.014219   -1259.2824    1243.0059     69115.31    10.451301   0.15973232 
   87300   -1339.6539    85.181169   -1254.4727    1323.2735     69971.48    10.451301   0.14779176 
   87400    -1333.527    88.727728   -1244.7992    1378.3686    75050.327    10.451301    0.1654032 
   87500    -1331.086     81.04845   -1250.0376    1259.0725     75849.56    10.451301   0.17152284 
   87600   -1340.2674    85.605143   -1254.6623    1329.8599    69783.924    10.451301   0.14630396 
   87700   -1343.0316    77.374284   -1265.6574     1201.995    67266.489    10.451301   0.14091188 
   87800   -1337.7624    78.425722   -1259.3367    1218.3289    70915.267    10.451301   0.14962796 
   87900   -1338.0965    83.164745   -1254.9317    1291.9487    71135.012    10.451301   0.16357752 
   88000   -1337.9622    89.020923   -1248.9413    1382.9234    71807.338    10.451301   0.17034683 
   88100   -1338.3594    86.872336    -1251.487    1349.5455    71962.037    10.451301    0.1626283 
   88200   -1342.4018    79.694404   -1262.7074    1238.0376    67975.254    10.451301   0.15007446 
   88300   -1343.2222    82.433094   -1260.7891    1280.5827    67377.406    10.451301   0.14051087 
   88400   -1337.4069    88.662357   -1248.7445    1377.3531    72036.663    10.451301   0.14215459 
   88500   -1339.2859    81.954443   -1257.3315    1273.1469    70270.206    10.451301   0.14582427 
   88600   -1343.3052    90.311231    -1252.994    1402.9681    68511.355    10.451301   0.14297315 
   88700   -1337.2463    77.422646   -1259.8237    1202.7463    70936.761    10.451301   0.15793427 
   88800    -1338.182    84.939816   -1253.2422    1319.5241    71074.139    10.451301   0.15137961 
   88900   -1339.8461    85.691651   -1254.1544    1331.2037     70499.62    10.451301   0.14878658 
   89000   -1334.5372    86.583964   -1247.9532    1345.0657    73410.146    10.451301   0.15333284 
   89100   -1339.4474    82.771318   -1256.6761    1285.8369    69851.673    10.451301   0.15439391 
   89200   -1342.6266    83.049738   -1259.5769    1290.1621    67712.947    10.451301    0.1561558 
   89300    -1336.579    86.496376   -1250.0826     1343.705    72441.425    10.451301   0.16300596 
   89400   -1339.1663     93.02993   -1246.1364    1445.2025     71712.01    10.451301   0.15267976 
   89500   -1337.5994    81.831015   -1255.7684    1271.2295    70781.673    10.451301   0.14647243 
   89600   -1341.7404    88.760662   -1252.9797    1378.8803    69527.959    10.451301   0.13522413 
   89700   -1341.1188    79.601664   -1261.5172    1236.5969    69179.124    10.451301   0.14852264 
   89800   -1339.3362    83.186923   -1256.1493    1292.2933    70101.736    10.451301    0.1582027 
   89900    -1334.894    87.428174   -1247.4658    1358.1803    74644.568    10.451301   0.16061772 
   90000   -1337.7516    81.996177   -1255.7554    1273.7952    71390.359    10.451301   0.16254992 
   90100   -1342.0443    87.333127   -1254.7112    1356.7038    68876.549    10.451301   0.15724073 
   90200    -1335.837    90.755931   -1245.0811    1409.8764    74213.804    10.451301   0.15895882 
   90300   -1336.3183    85.656759   -1250.6615    1330.6617    72218.639    10.451301   0.15648632 
   90400   -1339.9071    82.307871   -1257.5993    1278.6374     69747.38    10.451301   0.14549826 
   90500   -1336.8211    83.006558   -1253.8145    1289.4913    71881.921    10.451301   0.14745333 
   90600    -1332.068    75.694935    -1256.373    1175.9066    74826.128    10.451301   0.16220028 
   90700   -1335.4191    83.559461   -1251.8597    1298.0806    73520.604    10.451301   0.14930093 
   90800   -1334.2497    77.491867   -1256.7579    1203.8216    73067.799    10.451301   0.15795206 
   90900   -1336.4518    86.609127   -1249.8426    1345.4566     72694.68    10.451301   0.15884916 
   91000   -1340.4286    84.606509   -1255.8221    1314.3463    69280.546    10.451301   0.15195923 
   91100   -1337.7202    83.260094   -1254.4601      1293.43     71143.39    10.451301   0.16355624 
   91200   -1336.3183    88.043682   -1248.2746    1367.7421    72776.883    10.451301   0.16343574 
   91300   -1335.2294     82.27486   -1252.9545    1278.1245    73018.388    10.451301   0.16773269 
   91400    -1337.517    81.980517   -1255.5365     1273.552    71089.336    10.451301   0.16259449 
   91500   -1340.4119    83.116924    -1257.295    1291.2058    69438.101    10.451301   0.15761632 
   91600   -1334.7319    82.711652   -1252.0203      1284.91    73311.701    10.451301   0.15351776 
   91700   -1338.2335    78.900033   -1259.3335    1225.6972     70345.75    10.451301   0.16070736 
   91800   -1340.7692    71.428555   -1269.3406    1109.6292    67691.284    10.451301   0.16423778 
   91900   -1339.6391    82.859457   -1256.7796    1287.2061    69835.261    10.451301   0.14984207 
   92000   -1331.0462    82.084648   -1248.9616    1275.1696    75276.438    10.451301   0.14984427 
   92100   -1337.9597    83.102391   -1254.8573    1290.9801    70962.379    10.451301   0.13746655 
   92200   -1339.7562     83.59819   -1256.1581    1298.6822    70102.542    10.451301   0.14403243 
   92300   -1340.4608    81.939981   -1258.5208    1272.9223     69242.34    10.451301   0.15413529 
   92400   -1342.0193    86.287001   -1255.7323    1340.4524    68564.781    10.451301   0.15722387 
   92500   -1339.0879    87.375788   -1251.7121    1357.3665    71545.709    10.451301   0.15598304 
   92600   -1340.5355    82.324832   -1258.2106    1278.9008    69070.789    10.451301   0.15621416 
   92700   -1331.6515    85.775257   -1245.8762    1332.5025    75436.647    10.451301   0.16188875 
   92800    -1335.956    86.592362   -1249.3636    1345.1961    72549.133    10.451301   0.15366746 
   92900   -1337.8354    81.791866   -1256.0436    1270.6213    71248.679    10.451301   0.15027533 
   93000   -1337.2405     86.56006   -1250.6804    1344.6943    72696.879    10.451301    0.1461354 
   93100   -1333.7182    76.404384   -1257.3139    1186.9278    73172.242    10.451301   0.15288437 
   93200    -1339.115    85.688928   -1253.4261    1331.1614    71065.238    10.451301   0.14742478 
   93300   -1339.7024    77.956167   -1261.7462    1211.0345    69537.355    10.451301   0.15183987 
   93400   -1336.8802    82.155446   -1254.7248    1276.2695    72005.299    10.451301   0.15023756 
   93500   -1337.3361      82.6994   -1254.6367    1284.7197    71746.836    10.451301   0.14924916 
   93600   -1340.5604    88.729867   -1251.8305    1378.4019    69934.414    10.451301   0.15502521 
   93700   -1336.1493    80.343262    -1255.806    1248.1175    72591.133    10.451301    0.1584506 
   93800   -1338.9949    88.685464   -1250.3094    1377.7121    71566.844    10.451301   0.14842655 
   93900   -1337.4335    83.012618   -1254.4209    1289.5855    72210.984    10.451301   0.15568765 
   94000    -1339.705    86.212189   -1253.4928    1339.2902    70634.822    10.451301   0.16006647 
   94100   -1343.2689    79.095814   -1264.1731    1228.7387    66679.495    10.451301   0.15198111 
   94200   -1334.7144    81.260951   -1253.4534    1262.3736    73543.299    10.451301   0.15712905 
   94300   -1337.8425    83.853907   -1253.9886    1302.6547    70931.862    10.451301   0.15282718 
   94400    -1338.571    80.900133   -1257.6708    1256.7684    69860.954    10.451301    0.1452597 
   94500   -1331.3691    82.531815   -1248.8373    1282.1163     76247.78    10.451301   0.15408274 
   94600   -1336.7539    80.502914    -1256.251    1250.5977    71796.186    10.451301   0.15577996 
   94700   -1338.6048    84.871309   -1253.7335    1318.4599    70936.136    10.451301   0.14881919 
   94800   -1342.3509    80.362495   -1261.9884    1248.4163    68118.892    10.451301   0.14720133 
   94900   -1344.1225     84.82888   -1259.2936    1317.8007    67485.901    10.451301   0.14160698 
   95000    -1338.789    84.850873   -1253.9381    1318.1424    70718.603    10.451301   0.15293616 
   95100    -1338.701    83.173318   -1255.5276    1292.0819    71359.038    10.451301   0.15103886 
   95200   -1339.3573    84.256994   -1255.1003    1308.9166    70632.508    10.451301    0.1396582 
   95300   -1336.1392    83.301986   -1252.8372    1294.0807    72605.764    10.451301   0.14735354 
   95400   -1341.0233    79.460263   -1261.5631    1234.4003    68713.374    10.451301   0.15896999 
   95500   -1338.1104    85.468409    -1252.642    1327.7357    71708.836    10.451301   0.15916843 
   95600   -1333.9024     81.35946   -1252.5429     1263.904    73548.584    10.451301   0.16544848 
   95700   -1337.1564    87.332317    -1249.824    1356.6912    72341.576    10.451301   0.15787537 
   95800   -1337.4669    79.755285   -1257.7116    1238.9834    70756.961    10.451301   0.15570351 
   95900   -1336.6507    88.102651   -1248.5481    1368.6582    73103.577    10.451301   0.15743181 
   96000   -1339.0981     87.20364   -1251.8945    1354.6922    70197.414    10.451301   0.16206827 
   96100   -1334.4504    78.950234   -1255.5002    1226.4771    72404.735    10.451301   0.16213197 
   96200   -1337.2521    88.190088    -1249.062    1370.0165    72154.607    10.451301   0.14981713 
   96300   -1337.4684    77.443956   -1260.0244    1203.0773    71002.671    10.451301   0.15787286 
   96400   -1336.3769    85.157931    -1251.219    1322.9125    72889.718    10.451301   0.15614118 
   96500   -1338.4374    84.312652   -1254.1247    1309.7812    71193.966    10.451301   0.14807934 
   96600   -1343.1015    82.809219   -1260.2923    1286.4257    67489.388    10.451301   0.14744075 
   96700   -1336.0909    81.590382   -1254.5005    1267.4913    72507.125    10.451301   0.15133723 
   96800   -1337.5774     84.96365   -1252.6137    1319.8944    72283.158    10.451301   0.14800042 
   96900   -1340.4371    88.404934   -1252.0321    1373.3541    70163.472    10.451301   0.14659884 
   97000   -1341.4034    85.154829   -1256.2486    1322.8643    69041.871    10.451301   0.14479361 
   97100   -1346.5294    82.075641   -1264.4538    1275.0297    64700.072    10.451301   0.14751696 
   97200   -1338.2355     84.94923   -1253.2863    1319.6704    71519.808    10.451301   0.16264032 
   97300   -1337.0778    86.563975   -1250.5139    1344.7551     71880.04    10.451301   0.16732489 
   97400   -1338.6568    83.413944   -1255.2429      1295.82     69798.05    10.451301   0.17027551 
   97500   -1340.8992    87.401977   -1253.4972    1357.7733    70754.957    10.451301   0.17095204 
   97600   -1335.1716    80.659772   -1254.5119    1253.0344    72420.236    10.451301   0.17684919 
   97700    -1342.041    85.677647   -1256.3634    1330.9862    67981.007    10.451301   0.16076035 
   97800   -1337.6077    83.510547   -1254.0971    1297.3207    71251.159    10.451301   0.16391326 
   97900   -1332.2423    83.250374    -1248.992     1293.279    75200.056    10.451301   0.16906482 
   98000   -1335.8363    86.753811   -1249.0825    1347.7042    73109.212    10.451301   0.16076611 
   98100   -1339.6811    81.758095    -1257.923    1270.0967    69616.873    10.451301   0.15143269 
   98200   -1334.2105    84.158557    -1250.052    1307.3874    74539.703    10.451301   0.15326227 
   98300   -1337.0744    85.495111   -1251.5793    1328.1505    72610.108    10.451301   0.16175132 
   98400    -1343.369    83.982291   -1259.3867    1304.6491    66711.529    10.451301   0.15698724 
   98500     -1338.72    83.853104   -1254.8669    1302.6423    70841.176    10.451301   0.15839886 
   98600   -1335.9103     85.14386   -1250.7664    1322.6939     72574.13    10.451301   0.16682882 
   98700   -1333.8884    81.337971   -1252.5504    1263.5701    73879.602    10.451301   0.17183161 
   98800   -1338.3848    80.115881   -1258.2689    1244.5852    70321.126    10.451301   0.16015733 
   98900   -1338.9853     77.86222   -1261.1231     1209.575     69691.48    10.451301    0.1666967 
   99000   -1333.2205    84.235908   -1248.9846     1308.589    74638.113    10.451301   0.16053868 
   99100   -1340.0564    83.339442    -1256.717    1294.6626    70044.179    10.451301   0.15568341 
   99200   -1339.1121    84.851608   -1254.2605    1318.1538    70086.197    10.451301    0.1565012 
   99300   -1336.2013    75.985558   -1260.2158    1180.4214    71560.971    10.451301   0.15935172 
   99400   -1331.9895    79.820043   -1252.1694    1239.9894     75234.21    10.451301   0.17168222 
   99500   -1329.4529    82.847392   -1246.6055    1287.0187    76575.203    10.451301   0.16829107 
   99600   -1335.6931    81.514241   -1254.1788    1266.3085     72257.54    10.451301   0.15765627 
   99700    -1342.586    82.684188   -1259.9018    1284.4834    68045.317    10.451301   0.13996631 
   99800   -1343.8965    79.532345   -1264.3641    1235.5201    66748.305    10.451301   0.14871979 
   99900   -1333.4243    81.967862   -1251.4564    1273.3554     74052.92    10.451301   0.16415704 
  100000   -1336.3487    84.409402   -1251.9393    1311.2842     72824.39    10.451301   0.15408021 
Loop time of 158.711 on 1 procs for 100000 steps with 499 atoms

Performance: 54.439 ns/day, 0.441 hours/ns, 630.077 timesteps/s
94.5% CPU use with 1 MPI tasks x no OpenMP threads

MPI task timing breakdown:
Section |  min time  |  avg time  |  max time  |%varavg| %total
---------------------------------------------------------------
Pair    | 101.74     | 101.74     | 101.74     |   0.0 | 64.11
Neigh   | 1.1202     | 1.1202     | 1.1202     |   0.0 |  0.71
Comm    | 1.249      | 1.249      | 1.249      |   0.0 |  0.79
Output  | 0.021034   | 0.021034   | 0.021034   |   0.0 |  0.01
Modify  | 54.129     | 54.129     | 54.129     |   0.0 | 34.11
Other   |            | 0.4486     |            |       |  0.28

Nlocal:    499 ave 499 max 499 min
Histogram: 1 0 0 0 0 0 0 0 0 0
Nghost:    1953 ave 1953 max 1953 min
Histogram: 1 0 0 0 0 0 0 0 0 0
Neighs:    25326 ave 25326 max 25326 min
Histogram: 1 0 0 0 0 0 0 0 0 0

Total # of neighbors = 25326
Ave neighs/atom = 50.7535
Neighbor list builds = 948
Dangerous builds = 0
Total wall time: 0:02:38
