LAMMPS (11 Aug 2017)

# ---------- Initialize simulation ---------------------
units metal
atom_style atomic
dimension  3
boundary   p p p
read_data /Users/simonbatzner1/Desktop/Research/Research_Code/ML-electron-density/EAM/lammps.data
  orthogonal box = (0 0 0) to (109.939 95.2096 107.966)
  1 by 1 by 1 MPI processor grid
  reading atoms ...
  64001 atoms
pair_style eam
pair_coeff * * /usr/local/Cellar/lammps/2017-08-11_4/bin/pots/Pd_u3.eam
Reading potential file /usr/local/Cellar/lammps/2017-08-11_4/bin/pots/Pd_u3.eam with DATE: 2007-06-11
velocity  all create 900 87287 dist gaussian

# ---------- set adatom ---------------------
group adatom id 64001
1 atoms in group adatom

# ---------- Describe computed properties------------------
compute msd_ad adatom msd
thermo_style custom step pe ke etotal temp press density c_msd_ad[4]
thermo 1

# ---------- Specify ensemble  ---------------------
#fix  1 all nve
fix  1 all nvt temp 900 900 0.05

# --------- Compute RDF ---------------
compute rdfall all rdf 100 1 1
fix 2 all ave/time 1 2500 2500 c_rdfall[*] file /Users/simonbatzner1/Desktop/Research/Research_Code/ML-electron-density/EAM/lammps.rdf mode vector

# --------- Run -------------
timestep 0.001
run 10000
Neighbor list info ...
  update every 1 steps, delay 10 steps, check yes
  max neighbors/atom: 2000, page size: 100000
  master list distance cutoff = 7.3
  ghost atom cutoff = 7.3
  binsize = 3.65, bins = 31 27 30
  2 neighbor lists, perpetual/occasional/extra = 1 1 0
  (1) pair eam, perpetual
      attributes: half, newton on
      pair build: half/bin/atomonly/newton
      stencil: half/bin/3d/newton
      bin: standard
  (2) compute rdf, occasional, copy from (1)
      attributes: half, newton on
      pair build: copy
      stencil: none
      bin: none
Per MPI rank memory allocation (min/avg/max) = 36.78 | 36.78 | 36.78 Mbytes
Step PotEng KinEng TotEng Temp Press Density c_msd_ad[4] 
       0    -248507.9    7445.3844   -241062.52          900    7296.3869    10.005939            0 
       1   -248523.28    7459.1182   -241064.17    901.66015    7308.9048    10.005939 0.00051286153 
       2    -248551.9     7485.956   -241065.94    904.90431    7352.4514    10.005939 0.0071311122 
       3   -248563.87    7497.6844   -241066.18    906.32204    7433.0081    10.005939   0.02916166 
       4   -248551.26    7485.5846   -241065.68    904.85942    7552.3437    10.005939  0.072632613 
       5   -248519.02    7453.8216    -241065.2    901.01989    7720.8801    10.005939   0.13925206 
       6   -248473.71    7408.6256   -241065.08    895.55659    7941.1707    10.005939   0.22889926 
       7   -248418.48    7353.3764    -241065.1    888.87805    8206.6317    10.005939   0.34136733 
       8   -248354.34    7289.2577   -241065.08    881.12737    8513.0929    10.005939   0.47650101 
       9   -248281.79    7216.8413   -241064.95    872.37366    8858.4985    10.005939   0.63414701 
      10   -248201.22    7136.5798   -241064.64    862.67163     9241.446    10.005939    0.8141927 
      11   -248112.98    7048.8805    -241064.1    852.07051    9660.4419    10.005939    1.0165965 
      12    -248017.4    6954.1244   -241063.27    840.61637    10114.053    10.005939    1.2413895 
      13   -247914.77    6852.6865   -241062.08    828.35453    10600.394    10.005939     1.488662 
      14   -247805.42    6744.9464   -241060.47    815.33088     11117.78    10.005939    1.7585431 
      15   -247689.68    6631.2921   -241058.38    801.59232    11664.451    10.005939    2.0511815 
      16   -247567.88    6512.1189   -241055.76    787.18662    12238.333    10.005939    2.3667289 
      17    -247440.4    6387.8214   -241052.58    772.16152    12836.998    10.005939    2.7053275 
      18   -247307.59    6258.7798   -241048.81    756.56293    13458.983    10.005939    3.0671016 
      19   -247169.84    6125.3446   -241044.49    740.43325    14101.657    10.005939    3.4521514 
      20   -247027.52    5987.8246   -241039.69     723.8098    14763.351    10.005939    3.8605512 
      21      -246881    5846.4764   -241034.52    706.72359    15440.798    10.005939    4.2923468 
      22   -246730.67    5701.5196   -241029.15    689.20118    16131.615    10.005939    4.7475361 
      23   -246576.89    5553.1533   -241023.74    671.26662    16835.344    10.005939    5.2261047 
      24   -246419.98    5401.5804    -241018.4    652.94445    17548.771    10.005939    5.7280124 
      25   -246260.27    5247.0626    -241013.2    634.26629     18270.13    10.005939    6.2531969 
      26   -246098.11    5089.9997   -241008.11    615.28049    18997.349    10.005939    6.8015849 
      27   -245934.11     4931.052   -241003.05    596.06685    19725.943    10.005939     7.373101 
      28   -245769.18    4771.2455   -240997.93     576.7494    20453.469    10.005939    7.9676777 
      29   -245604.62    4611.9432   -240992.68    557.49289    21175.976    10.005939    8.5852591 
      30   -245441.86    4454.5845   -240987.27    538.47134    21891.801    10.005939    9.2258024 
      31   -245281.96    4300.2654    -240981.7    519.81721    22597.963    10.005939    9.8892809 
      32    -245125.4    4149.4227   -240975.98     501.5833    23291.897    10.005939    10.575684 
      33   -244971.98    4001.8681   -240970.11    483.74685    23972.969    10.005939    11.285015 
      34   -244821.28    3857.1496   -240964.13    466.25325    24638.746    10.005939    12.017288 
      35   -244673.03    3714.9669   -240958.07    449.06616    25287.469    10.005939    12.772528 
      36   -244527.35    3575.3815   -240951.97    432.19304    25919.144    10.005939    13.550772 
      37   -244384.68    3438.7847   -240945.89    415.68119     26532.66    10.005939    14.352052 
      38   -244245.59    3305.7427   -240939.85    399.59903    27125.869    10.005939    15.176421 
      39   -244110.71    3176.8489   -240933.86    384.01832    27697.328    10.005939    16.023941 
      40   -243980.57    3052.6446   -240927.93    369.00447    28244.427    10.005939    16.894678 
      41   -243855.66     2933.602   -240922.06    354.61457     28766.09    10.005939    17.788704 
      42   -243736.39    2820.1348   -240916.25    340.89863    29259.328    10.005939    18.706101 
      43   -243623.14    2712.6124   -240910.52    327.90129    29723.225    10.005939     19.64695 
      44   -243516.23    2611.3655   -240904.87    315.66254    30156.939    10.005939    20.611338 
      45   -243415.98    2516.6863   -240899.29    304.21769    30559.315    10.005939    21.599361 
      46   -243322.61    2428.8265   -240893.79    293.59718    30928.955    10.005939    22.611121 
      47   -243236.35    2347.9944   -240888.36    283.82617    31265.143    10.005939    23.646725 
      48   -243157.35    2274.3525      -240883    274.92432    31566.903    10.005939    24.706274 
      49   -243085.73    2208.0165   -240877.71     266.9056    31834.321    10.005939    25.789867 
      50   -243021.53     2149.051   -240872.48    259.77784    32067.088    10.005939    26.897605 
      51   -242964.76    2097.4664   -240867.29    253.54228     32265.74    10.005939    28.029592 
      52   -242915.36    2053.2151   -240862.15    248.19318    32430.536    10.005939    29.185934 
      53   -242873.22    2016.1856   -240857.03    243.71704    32561.821    10.005939     30.36675 
      54   -242838.13    1986.2004   -240851.93    240.09242    32660.535    10.005939    31.572164 
      55   -242809.88    1963.0456   -240846.84    237.29347    32726.843    10.005939    32.802304 
      56   -242788.25     1946.537   -240841.72     235.2979    32761.444    10.005939    34.057314 
      57   -242773.18    1936.6243   -240836.56    234.09965    32763.682    10.005939    35.337324 
      58   -242764.83    1933.4895   -240831.35    233.72072    32734.691    10.005939    36.642468 
      59    -242763.6    1937.5285   -240826.07    234.20895    32673.942    10.005939    37.972877 
      60   -242769.91    1949.1623   -240820.75    235.61525    32582.616    10.005939    39.328685 
      61   -242783.91    1968.5401   -240815.37    237.95764    32461.368    10.005939     40.71003 
      62   -242805.24    1995.3194   -240809.92    241.19472    32311.321    10.005939    42.117052 
      63   -242833.05    2028.6911   -240804.36    245.22871     32134.69    10.005939    43.549876 
      64   -242866.29    2067.6324   -240798.65    249.93594    31933.504    10.005939     45.00863 
      65   -242903.98    2111.2039   -240792.78    255.20288    31710.543    10.005939    46.493437 
      66   -242945.45    2158.7193   -240786.73    260.94655    31468.111    10.005939    48.004431 
      67   -242990.25    2209.7405   -240780.51      267.114    31208.805    10.005939    49.541735 
      68   -243038.09     2263.978   -240774.11    273.67025    30934.744    10.005939    51.105474 
      69   -243088.72    2321.1871   -240767.53     280.5857    30647.648    10.005939     52.69577 
      70   -243141.88     2381.103   -240760.77    287.82835    30349.233    10.005939    54.312742 
      71   -243197.25    2443.4271   -240753.82     295.3621    30041.031    10.005939    55.956507 
      72   -243254.52    2507.8368   -240746.68    303.14797    29724.633    10.005939    57.627197 
      73   -243313.34    2573.9995   -240739.34    311.14573    29401.308    10.005939    59.324927 
      74   -243373.38    2641.5847   -240731.79    319.31544    29073.033    10.005939     61.04982 
      75   -243434.32    2710.2691   -240724.05    327.61803    28741.423    10.005939    62.801989 
      76   -243495.83    2779.7385    -240716.1    336.01552    28407.692    10.005939    64.581547 
      77   -243557.63    2849.6887   -240707.94    344.47111    28074.314    10.005939    66.388606 
      78   -243619.41    2919.8196   -240699.59    352.94855    27742.214    10.005939    68.223279 
      79   -243680.87    2989.8308   -240691.04    361.41152    27413.037    10.005939    70.085676 
      80   -243741.71    3059.4173   -240682.29    369.82317    27087.872    10.005939    71.975908 
      81   -243801.62    3128.2682   -240673.36    378.14588    26768.556    10.005939    73.894087 
      82    -243860.3    3196.0702   -240664.23    386.34179    26456.924    10.005939    75.840322 
      83   -243917.44    3262.5121   -240654.93    394.37331    26154.002    10.005939    77.814724 
      84   -243972.74    3327.2902   -240645.45     402.2037    25861.171    10.005939    79.817402 
      85   -244025.91    3390.1128    -240635.8    409.79772    25580.448    10.005939    81.848466 
      86    -244076.7    3450.7044   -240625.99    417.12204    25312.638    10.005939    83.908025 
      87   -244124.84    3508.8119   -240616.03     424.1461    25059.154    10.005939    85.996189 
      88   -244170.14    3564.2211   -240605.92    430.84398    24820.131    10.005939    88.113066 
      89   -244212.45    3616.7888   -240595.66    437.19837    24597.312    10.005939    90.258767 
      90   -244251.74    3666.4737   -240585.27     443.2043    24390.023    10.005939    92.433401 
      91    -244288.1    3713.3505   -240574.75    448.87078    24198.614    10.005939    94.637077 
      92    -244321.7    3757.5855   -240564.12    454.21791    24023.625    10.005939    96.869906 
      93   -244352.74    3799.3586   -240553.38    459.26746    23865.064    10.005939    99.131999 
      94   -244381.32    3838.7644   -240542.56    464.03084    23721.994    10.005939    101.42347 
      95   -244407.39    3875.7418   -240531.65    468.50068    23595.975    10.005939    103.74442 
      96   -244430.73    3910.0735   -240520.66     472.6507    23486.764    10.005939    106.09497 
      97   -244451.05    3941.4596   -240509.59    476.44467    23394.627    10.005939    108.47523 
      98   -244468.05    3969.6187   -240498.44    479.84854    23320.136    10.005939    110.88532 
      99   -244481.57    3994.3639   -240487.21    482.83975    23263.952    10.005939    113.32534 
     100   -244491.54    4015.6272   -240475.92    485.41007    23226.192    10.005939    115.79542 
     101   -244498.01    4033.4424   -240464.57    487.56357    23206.407    10.005939    118.29566 
     102   -244501.09    4047.9095   -240453.18    489.31235    23204.873    10.005939    120.82619 
     103   -244500.91    4059.1599   -240441.75    490.67231    23220.478    10.005939    123.38713 
     104   -244497.62    4067.3378   -240430.28    491.66085    23252.408    10.005939    125.97858 
     105   -244491.39    4072.5918   -240418.79    492.29596    23300.246    10.005939    128.60068 
     106   -244482.36    4075.0745   -240407.28    492.59606     23363.27    10.005939    131.25355 
     107    -244470.7    4074.9469   -240395.76    492.58064    23441.101    10.005939     133.9373 
     108    -244456.6    4072.3795   -240384.22     492.2703    23531.733    10.005939    136.65208 
     109   -244440.22     4067.549   -240372.67    491.68638    23634.607    10.005939    139.39799 
     110   -244421.75    4060.6392   -240361.11    490.85112    23749.247    10.005939    142.17518 
     111    -244401.4    4051.8402   -240349.56     489.7875     23874.99    10.005939    144.98376 
     112   -244379.35    4041.3455      -240338     488.5189    24010.023    10.005939    147.82388 
     113    -244355.8    4029.3505   -240326.45    487.06894    24153.806    10.005939    150.69567 
     114   -244330.95    4016.0482   -240314.91    485.46096    24305.086    10.005939    153.59926 
     115      -244305    4001.6279   -240303.37    483.71783    24461.743    10.005939    156.53478 
     116   -244278.12    3986.2746   -240291.84    481.86191    24623.296    10.005939    159.50238 
     117    -244250.5    3970.1683   -240280.33    479.91498    24789.462    10.005939    162.50219 
     118   -244222.31    3953.4842   -240268.82     477.8982    24959.158    10.005939    165.53436 
     119   -244193.72    3936.3907   -240257.33    475.83193    25130.673    10.005939    168.59903 
     120   -244164.91    3919.0503   -240245.86    473.73582    25304.232    10.005939    171.69634 
     121   -244136.01    3901.6207   -240234.39    471.62892    25477.372    10.005939    174.82643 
     122    -244107.2    3884.2563   -240222.94    469.52992    25650.242    10.005939    177.98946 
     123   -244078.62    3867.1165   -240211.51    467.45805    25821.459    10.005939    181.18556 
     124   -244050.46    3850.3838   -240200.08     465.4354    25989.156    10.005939     184.4149 
     125   -244022.94    3834.2839   -240188.65    463.48923    26152.103    10.005939    187.67761 
     126   -243996.33    3819.0979   -240177.24    461.65355     26310.44    10.005939    190.97385 
     127   -243970.99     3805.164   -240165.82    459.96921    26461.787    10.005939    194.30377 
     128   -243947.26    3792.8424   -240154.41    458.47978     26604.75    10.005939    197.66752 
     129   -243925.47    3782.4551   -240143.01    457.22416    26738.656    10.005939    201.06526 
     130   -243905.84    3774.2223   -240131.62    456.22898    26863.081    10.005939    204.49714 
     131   -243888.45    3768.2302   -240120.22    455.50465    26976.522    10.005939     207.9633 
     132   -243873.25    3764.4459   -240108.81     455.0472    27078.959    10.005939    211.46392 
     133   -243860.15    3762.7716   -240097.38    454.84482    27170.136    10.005939    214.99913 
     134   -243849.03      3763.11   -240085.92    454.88572    27249.511    10.005939     218.5691 
     135   -243839.84    3765.4107   -240074.43    455.16382    27316.648    10.005939    222.17397 
     136   -243832.59    3769.6796   -240062.91    455.67986    27372.479    10.005939    225.81391 
     137   -243827.33    3775.9715   -240051.35    456.44042    27415.986    10.005939    229.48906 
     138   -243824.12    3784.3661   -240039.76    457.45516    27446.691    10.005939    233.19958 
     139   -243823.06    3794.9407   -240028.12    458.73342    27465.214    10.005939    236.94563 
     140    -243824.2    3807.7607   -240016.44    460.28311    27470.498    10.005939    240.72734 
     141   -243827.58    3822.8747    -240004.7    462.11009    27461.949    10.005939    244.54489 
     142   -243833.22    3840.3125   -239992.91    464.21797    27439.507    10.005939    248.39841 
     143   -243841.14    3860.0867   -239981.06    466.60828    27404.068    10.005939    252.28806 
     144   -243851.34    3882.1975   -239969.14    469.28105     27355.26    10.005939    256.21399 
     145   -243863.79    3906.6317   -239957.15    472.23466    27293.446    10.005939    260.17634 
     146   -243878.45     3933.362   -239945.09    475.46582    27218.125    10.005939    264.17528 
     147    -243895.3    3962.3487   -239932.95    478.96974    27129.884    10.005939    268.21094 
     148   -243914.27    3993.5395   -239920.73    482.74009    27028.678    10.005939    272.28347 
     149   -243935.29    4026.8696   -239908.42    486.76905    26915.219    10.005939    276.39302 
     150   -243958.29    4062.2618   -239896.03    491.04727    26790.548    10.005939    280.53973 
     151   -243983.17    4099.6245   -239883.54    495.56368    26654.245    10.005939    284.72374 
     152   -244009.81     4138.852   -239870.96    500.30551    26507.691    10.005939     288.9452 
     153   -244038.11     4179.826   -239858.28    505.25845    26350.816    10.005939    293.20424 
     154   -244067.93    4222.4155   -239845.51    510.40668     26184.66    10.005939    297.50101 
     155   -244099.11    4266.4766   -239832.64     515.7328    26009.886    10.005939    301.83564 
     156   -244131.52    4311.8541   -239819.66    521.21805     25827.14    10.005939    306.20826 
     157   -244164.97    4358.3842   -239806.59    526.84262    25637.446    10.005939    310.61901 
     158   -244199.31    4405.8965   -239793.42    532.58591    25441.812    10.005939    315.06803 
     159   -244234.36    4454.2144   -239780.15     538.4266    25240.968    10.005939    319.55543 
     160   -244269.94     4503.158   -239766.78    544.34291     25035.56    10.005939    324.08136 
     161   -244305.86    4552.5462   -239753.31    550.31297    24826.905    10.005939    328.64594 
     162   -244341.95    4602.2001   -239739.75    556.31514    24615.913    10.005939     333.2493 
     163   -244378.05    4651.9464    -239726.1    562.32849    24403.865    10.005939    337.89156 
     164   -244413.99    4701.6235   -239712.36    568.33347    24190.621    10.005939    342.57284 
     165   -244449.62    4751.0836   -239698.54    574.31222    23978.277    10.005939    347.29327 
     166   -244484.83    4800.1955   -239684.63    580.24888    23766.712    10.005939    352.05297 
     167   -244519.49    4848.8405   -239670.65     586.1291     23556.95    10.005939    356.85205 
     168   -244553.49     4896.902   -239656.59    591.93879    23349.922    10.005939    361.69064 
     169   -244586.72    4944.2549   -239642.47    597.66282    23146.489    10.005939    366.56885 
     170   -244619.03    4990.7533   -239628.28    603.28356    22947.958    10.005939    371.48681 
     171   -244650.26    5036.2252   -239614.04    608.78022    22754.633    10.005939    376.44462 
     172   -244680.21    5080.4754   -239599.73    614.12919    22567.734    10.005939     381.4424 
     173   -244708.68    5123.2941   -239585.38    619.30512    22388.158    10.005939    386.48026 
     174   -244735.46    5164.4711   -239570.99    624.28261    22216.634    10.005939    391.55833 
     175   -244760.36    5203.8084   -239556.55    629.03772    22054.477    10.005939     396.6767 
     176   -244783.21    5241.1314   -239542.08    633.54933    21901.857    10.005939     401.8355 
     177   -244803.86    5276.2928   -239527.57    637.79965    21760.596    10.005939    407.03484 
     178   -244822.21    5309.1668   -239513.04    641.77347    21630.848    10.005939    412.27483 
     179   -244838.13    5339.6471   -239498.49    645.45793    21512.253    10.005939    417.55558 
     180   -244851.56    5367.6432   -239483.92    648.84211    21406.967    10.005939    422.87722 
     181   -244862.42    5393.0774   -239469.34     651.9166    21315.095    10.005939    428.23985 
     182   -244870.64    5415.8837   -239454.76    654.67343    21236.931    10.005939    433.64359 
     183   -244876.18    5436.0059   -239440.17    657.10581     21172.82    10.005939    439.08857 
     184   -244878.98    5453.3985   -239425.58    659.20823    21122.531    10.005939     444.5749 
     185   -244879.03    5468.0273      -239411    660.97657    21086.496    10.005939     450.1027 
     186   -244876.29     5479.869   -239396.42    662.40799    21065.348    10.005939     455.6721 
     187   -244870.76    5488.9111   -239381.85    663.50101    21058.537    10.005939    461.28323 
     188   -244862.44    5495.1529   -239367.29    664.25552    21066.694    10.005939    466.93621 
     189   -244851.35    5498.6054   -239352.74    664.67285    21090.098    10.005939    472.63118 
     190    -244837.5    5499.2909   -239338.21    664.75572    21128.789    10.005939    478.36826 
     191   -244820.94    5497.2431   -239323.69    664.50817    21181.438    10.005939    484.14761 
     192    -244801.7    5492.5057   -239309.19    663.93552    21248.647    10.005939    489.96936 
     193   -244779.84    5485.1337   -239294.71    663.04439    21329.808    10.005939    495.83365 
     194   -244755.44    5475.1909   -239280.24     661.8425    21425.309    10.005939    501.74064 
     195   -244728.55      5462.75    -239265.8    660.33865    21534.439    10.005939    507.69047 
     196   -244699.26    5447.8932   -239251.37    658.54275      21656.7    10.005939    513.68331 
     197   -244667.67      5430.71   -239236.96    656.46564    21790.656    10.005939    519.71932 
     198   -244633.87    5411.2971   -239222.57      654.119    21936.739    10.005939    525.79865 
     199   -244597.96    5389.7576    -239208.2     651.5153    22094.275    10.005939    531.92148 
     200   -244560.05    5366.2017   -239193.85    648.66785    22263.388    10.005939    538.08799 
     201   -244520.27    5340.7465   -239179.52    645.59082    22442.895    10.005939    544.29834 
     202   -244478.73     5313.516   -239165.21     642.2992      22632.4    10.005939    550.55273 
     203   -244435.56      5284.64   -239150.92    638.80866    22831.054    10.005939    556.85134 
     204   -244390.91    5254.2553   -239136.65    635.13575    23037.595    10.005939    563.19435 
     205   -244344.91    5222.5043    -239122.4    631.29768    23251.596    10.005939      569.582 
     206   -244297.71    5189.5354   -239108.17    627.31239    23472.243    10.005939    576.01448 
     207   -244249.47    5155.5041   -239093.97    623.19867    23699.044    10.005939    582.49201 
     208   -244200.35    5120.5704   -239079.78    618.97588    23930.847    10.005939    589.01481 
     209   -244150.52    5084.9004   -239065.62    614.66408    24166.355    10.005939    595.58308 
     210   -244100.15     5048.664   -239051.48    610.28382    24405.525    10.005939    602.19711 
     211   -244049.41    5012.0356   -239037.37    605.85617    24646.554    10.005939    608.85713 
     212   -243998.47    4975.1923   -239023.28    601.40254    24888.683    10.005939    615.56345 
     213   -243947.52    4938.3137   -239009.21    596.94465    25130.763    10.005939    622.31635 
     214   -243896.75    4901.5822   -238995.17    592.50453    25372.241    10.005939    629.11611 
     215   -243846.33    4865.1818   -238981.15    588.10444    25612.511    10.005939    635.96304 
     216   -243796.45    4829.2972   -238967.16     583.7667    25849.918    10.005939    642.85747 
     217    -243747.3    4794.1124   -238953.19    579.51356    26083.921    10.005939    649.79974 
     218   -243699.06    4759.8107   -238939.24    575.36716    26313.781    10.005939     656.7902 
     219    -243651.9    4726.5719   -238925.32    571.34924    26537.949    10.005939    663.82929 
     220   -243605.99    4694.5689   -238911.43    567.48071    26755.854    10.005939    670.91742 
     221   -243561.52    4663.9672   -238897.55    563.78158    26966.536    10.005939    678.05505 
     222   -243518.61    4634.9237   -238883.69    560.27078    27169.418    10.005939    685.24263 
     223   -243477.44    4607.5856   -238869.85    556.96615    27363.753    10.005939    692.48068 
     224   -243438.12    4582.0876   -238856.03    553.88394    27547.906    10.005939     699.7697 
     225   -243400.77    4558.5527   -238842.22    551.03904    27722.387    10.005939    707.11015 
     226   -243365.52    4537.0954   -238828.42    548.44528    27886.246    10.005939    714.50245 
     227   -243332.45    4517.8211   -238814.63     546.1154     28038.76    10.005939    721.94708 
     228   -243301.68    4500.8269   -238800.85    544.06113    28179.873    10.005939    729.44456 
     229   -243273.27    4486.1999   -238787.07    542.29301    28308.362    10.005939    736.99549 
     230    -243247.3    4474.0174   -238773.28    540.82039    28423.841    10.005939    744.60048 
     231   -243223.84    4464.3465   -238759.49    539.65136      28526.7    10.005939    752.26017 
     232   -243202.94    4457.2438   -238745.69     538.7928    28616.575    10.005939    759.97519 
     233   -243184.63    4452.7563   -238731.88    538.25035    28693.017    10.005939    767.74621 
     234   -243168.96    4450.9184   -238718.05    538.02817    28755.674    10.005939     775.5738 
     235   -243155.94    4451.7497   -238704.19    538.12866     28804.53    10.005939    783.45855 
     236   -243145.57    4455.2588   -238690.31    538.55284    28840.313    10.005939    791.40081 
     237   -243137.84    4461.4418    -238676.4    539.30024    28862.588    10.005939    799.40089 
     238   -243132.73    4470.2778   -238662.45    540.36834    28870.942    10.005939    807.45889 
     239    -243130.2    4481.7312   -238648.47    541.75283    28866.245    10.005939    815.57458 
     240   -243130.19    4495.7534   -238634.44    543.44784     28847.51    10.005939    823.74736 
     241   -243132.65    4512.2829   -238620.36    545.44593    28815.884    10.005939    831.97619 
     242   -243137.49    4531.2468   -238606.24    547.73829    28772.234    10.005939    840.25963 
     243   -243144.62    4552.5624   -238592.06    550.31493     28715.74    10.005939    848.59584 
     244   -243153.95     4576.126   -238577.82     553.1633    28647.404    10.005939    856.98265 
     245   -243165.35    4601.8172   -238563.53    556.26886    28567.806    10.005939    865.41684 
     246   -243178.67    4629.4987   -238549.17      559.615    28478.022    10.005939     873.8944 
     247   -243193.76    4659.0092   -238534.75    563.18224    28379.001    10.005939    882.40967 
     248   -243210.45    4690.1932   -238520.26    566.95177    28271.267    10.005939     890.9549 
     249   -243228.65    4722.9579   -238505.69    570.91238    28155.049    10.005939     899.5211 
     250   -243248.36    4757.3052   -238491.06    575.06429    28030.225    10.005939    908.10108 
     251   -243269.64    4793.2932   -238476.35    579.41453    27897.256    10.005939    916.69254 
     252   -243292.52    4830.9309   -238461.59    583.96419    27756.348    10.005939    925.29948 
     253   -243316.85    4870.0745   -238446.78    588.69587    27607.355    10.005939    933.92999 
     254   -243342.31    4910.4121    -238431.9    593.57189    27451.783    10.005939    942.59165 
     255   -243368.49    4951.5453   -238416.95    598.54408    27292.569    10.005939     951.2872 
     256   -243395.02    4993.0903   -238401.93    603.56605    27130.407    10.005939     960.0126 
     257   -243421.56    5034.7141   -238386.84    608.59755    26966.928    10.005939    968.75709 
     258   -243447.82    5076.1241   -238371.69    613.60321    26803.915    10.005939    977.50306 
     259   -243473.59    5117.1106   -238356.48    618.55766    26641.954    10.005939    986.22567 
     260   -243498.83    5157.6468   -238341.19    623.45769    26480.453    10.005939    994.89598 
     261   -243523.76    5197.9173   -238325.84    628.32559    26319.555    10.005939    1003.4884 
     262   -243548.65    5238.1836   -238310.47      633.193    26159.174    10.005939    1011.9885 
     263   -243573.63    5278.5582   -238295.07    638.07349    25999.643    10.005939    1020.3972 
     264   -243598.52    5318.8719   -238279.65    642.94662    25842.071    10.005939    1028.7272 
     265   -243622.93    5358.7455   -238264.19    647.76655    25687.326    10.005939    1036.9968 
     266   -243646.47    5397.7767   -238248.69    652.48465    25536.881    10.005939     1045.223 
     267   -243668.82    5435.6714   -238233.15    657.06537    25392.026    10.005939    1053.4191 
     268   -243689.82     5472.223   -238217.59    661.48374    25253.716    10.005939    1061.5938 
     269   -243709.23    5507.2018   -238202.02    665.71199    25123.535    10.005939    1069.7504 
     270   -243726.73    5540.2742   -238186.45    669.70979    25001.984    10.005939    1077.8836 
     271   -243741.88    5571.0012   -238170.88    673.42407    24890.301    10.005939     1085.975 
     272   -243754.23    5598.9513   -238155.28    676.80269    24790.051    10.005939    1093.9879 
     273    -243763.6    5623.9555   -238139.65    679.82521    24700.856    10.005939    1101.8654 
     274   -243770.37    5646.3917   -238123.98     682.5373    24621.012    10.005939    1109.5387 
     275   -243775.54     5667.247   -238108.29    685.05829    24549.435    10.005939    1116.9432 
     276   -243780.38    5687.7205   -238092.65    687.53314    24485.311    10.005939    1124.0396 
     277    -243785.6    5708.5004    -238077.1    690.04502    24429.125    10.005939    1130.8274 
     278   -243790.88    5729.2796    -238061.6    692.55681    24380.939    10.005939    1137.3434 
     279   -243795.07    5748.9531   -238046.11    694.93495    24342.386    10.005939    1143.6466 
     280    -243796.9    5766.3003    -238030.6    697.03188    24314.305    10.005939    1149.7986 
     281   -243795.61    5780.5616   -238015.05    698.75579    24297.474    10.005939      1155.85 
     282   -243791.05      5791.56   -237999.49    700.08528    24294.103    10.005939    1161.8351 
     283   -243783.44     5799.486   -237983.95    701.04338    24304.698    10.005939    1167.7744 
     284   -243773.08    5804.6293   -237968.45     701.6651    24329.383    10.005939    1173.6785 
     285    -243760.2    5807.2253   -237952.97    701.97891    24365.996    10.005939    1179.5522 
     286   -243744.97    5807.4362   -237937.53     702.0044    24414.506    10.005939    1185.3971 
     287   -243727.49    5805.3757   -237922.12    701.75532     24473.85    10.005939    1191.2118 
     288   -243707.86     5801.131   -237906.73    701.24223    24544.406    10.005939    1196.9925 
     289   -243686.14    5794.7854   -237891.36    700.47516    24625.809    10.005939    1202.7327 
     290   -243662.44    5786.4287   -237876.01    699.46501    24716.902    10.005939    1208.4231 
     291   -243636.85     5776.164   -237860.69    698.22421    24817.503    10.005939    1214.0513 
     292   -243609.49    5764.1134   -237845.38    696.76753    24928.184    10.005939    1219.6023 
     293   -243580.51    5750.4216   -237830.09    695.11246    25048.141    10.005939    1225.0583 
     294   -243550.07    5735.2561   -237814.82    693.27925    25174.978    10.005939    1230.3997 
     295   -243518.36    5718.8071   -237799.56    691.29089    25309.437    10.005939    1235.6059 
     296   -243485.59    5701.2794   -237784.31    689.17214    25449.926    10.005939    1240.6568 
     297   -243451.95    5682.8767   -237769.07    686.94761    25595.802    10.005939    1245.5351 
     298   -243417.63     5663.786   -237753.85    684.63993    25746.117    10.005939    1250.2274 
     299    -243382.8    5644.1648   -237738.63    682.26811    25900.023    10.005939    1254.7255 
     300   -243347.56    5624.1353   -237723.42    679.84694    26057.832    10.005939    1259.0262 
     301   -243312.01    5603.7928   -237708.22    677.38793    26218.721    10.005939     1263.131 
     302   -243276.23    5583.2163   -237693.02    674.90063    26380.828    10.005939     1267.046 
     303   -243240.29    5562.4759   -237677.82    672.39354    26544.659    10.005939    1270.7809 
     304   -243204.25    5541.6406   -237662.61    669.87496    26709.298    10.005939    1274.3476 
     305   -243168.19    5520.7816   -237647.41    667.35352    26874.647    10.005939    1277.7603 
     306   -243132.18    5499.9716    -237632.2      664.838    27039.574    10.005939     1281.034 
     307   -243096.28    5479.2849      -237617    662.33739    27204.201    10.005939    1284.1844 
     308   -243060.59    5458.8012   -237601.78    659.86131    27368.284    10.005939    1287.2267 
     309   -243025.18    5438.6107   -237586.57    657.42068    27530.441    10.005939    1290.1756 
     310   -242990.17    5418.8157   -237571.35    655.02785     27690.17    10.005939    1293.0446 
     311   -242955.65    5399.5309   -237556.12     652.6967    27847.042    10.005939    1295.8453 
     312   -242921.78    5380.8818   -237540.89    650.44239     28000.22    10.005939    1298.5876 
     313   -242888.65    5362.9969   -237525.66    648.28047    28149.262    10.005939      1301.28 
     314   -242856.42    5346.0066   -237510.41    646.22667    28294.132    10.005939     1303.929 
     315    -242825.2    5330.0401   -237495.16    644.29664    28433.115    10.005939    1306.5402 
     316   -242795.13    5315.2215   -237479.91    642.50536    28565.629    10.005939    1309.1177 
     317    -242766.3    5301.6653   -237464.64    640.86668    28691.271    10.005939     1311.665 
     318   -242738.84     5289.476   -237449.36    639.39324    28809.966    10.005939    1314.1845 
     319   -242712.82     5278.751   -237434.07     638.0968     28920.71    10.005939    1316.6783 
     320   -242688.35    5269.5771   -237418.77    636.98785     29023.94    10.005939    1319.1479 
     321   -242665.48    5262.0287   -237403.45     636.0754    29118.038    10.005939    1321.5943 
     322   -242644.29    5256.1725   -237388.12     635.3675    29202.845    10.005939    1324.0182 
     323   -242624.84    5252.0652   -237372.77    634.87101     29279.15    10.005939    1326.4198 
     324   -242607.16    5249.7556    -237357.4    634.59182     29345.94    10.005939    1328.7993 
     325    -242591.3    5249.2864   -237342.01     634.5351    29403.388    10.005939    1331.1564 
     326   -242577.29    5250.6917    -237326.6    634.70498    29451.343    10.005939    1333.4909 
     327   -242565.16    5253.9994   -237311.16    635.10481    29489.269    10.005939     1335.802 
     328   -242554.92    5259.2286   -237295.69    635.73692     29517.26    10.005939    1338.0892 
     329   -242546.59     5266.389    -237280.2    636.60248    29535.629    10.005939    1340.3514 
     330   -242540.17    5275.4805   -237264.69    637.70146    29543.982    10.005939    1342.5878 
     331   -242535.63    5286.4906   -237249.14    639.03236    29542.637    10.005939    1344.7973 
     332   -242532.95    5299.3929   -237233.56      640.592    29531.324    10.005939    1346.9788 
     333    -242532.1    5314.1491   -237217.95    642.37573    29510.537    10.005939    1349.1311 
     334   -242533.02     5330.708   -237202.31    644.37737    29480.499    10.005939    1351.2529 
     335   -242535.64    5349.0049   -237186.63     646.5891    29441.304    10.005939    1353.3429 
     336   -242539.89    5368.9635   -237170.92    649.00171    29392.728    10.005939    1355.3999 
     337   -242545.68    5390.4992   -237155.18    651.60495    29336.292    10.005939    1357.4228 
     338   -242552.92    5413.5195    -237139.4    654.38764    29271.739    10.005939    1359.4103 
     339   -242561.52    5437.9234   -237123.59     657.3376    29199.693    10.005939    1361.3613 
     340   -242571.35    5463.6057   -237107.75    660.44208    29120.837    10.005939    1363.2747 
     341   -242582.33    5490.4573   -237091.87    663.68791    29035.572    10.005939    1365.1496 
     342   -242594.33    5518.3658   -237075.97     667.0615    28944.992    10.005939    1366.9852 
     343   -242607.25     5547.218   -237060.03    670.54915      28848.4    10.005939    1368.7807 
     344   -242620.97     5576.898   -237044.07    674.13689     28747.35    10.005939    1370.5355 
     345   -242635.37    5607.2907   -237028.08    677.81075    28642.109    10.005939    1372.2492 
     346   -242650.35    5638.2813   -237012.07    681.55691    28533.305    10.005939    1373.9214 
     347   -242665.79    5669.7564   -236996.03    685.36163    28421.151    10.005939    1375.5519 
     348   -242681.58    5701.6029   -236979.98    689.21125    28306.935    10.005939    1377.1409 
     349   -242697.62    5733.7094   -236963.91    693.09229    28190.915    10.005939    1378.6883 
     350   -242713.79    5765.9643   -236947.83    696.99126    28074.124    10.005939    1380.1945 
     351   -242729.99    5798.2567   -236931.74    700.89478    27956.467    10.005939    1381.6597 
     352   -242746.12    5830.4788   -236915.64     704.7898    27838.195    10.005939    1383.0846 
     353   -242762.06    5862.5226   -236899.54    708.66326    27720.629    10.005939    1384.4697 
     354   -242777.71    5894.2811   -236883.43    712.50224    27604.098    10.005939    1385.8157 
     355   -242792.98    5925.6486   -236867.33    716.29395    27488.755    10.005939    1387.1234 
     356   -242807.76    5956.5215   -236851.23    720.02587    27374.943    10.005939    1388.3936 
     357   -242821.95    5986.7996   -236835.15     723.6859    27264.191    10.005939    1389.6272 
     358   -242835.46    6016.3859   -236819.08    727.26229    27156.097    10.005939    1390.8251 
     359   -242848.21    6045.1877   -236803.02    730.74387    27051.656    10.005939    1391.9884 
     360    -242860.1    6073.1193   -236786.98    734.12025    26951.733    10.005939     1393.118 
     361   -242871.06    6100.0992   -236770.96    737.38158    26856.191    10.005939    1394.2151 
     362   -242881.02    6126.0515   -236754.97     740.5187     26765.68    10.005939    1395.2805 
     363   -242889.91    6150.9085   -236739.01    743.52342     26680.62    10.005939    1396.3155 
     364   -242897.68    6174.6079   -236723.07    746.38821    26601.592    10.005939     1397.321 
     365   -242904.26     6197.093   -236707.17    749.10622    26528.536    10.005939    1398.2982 
     366   -242909.61    6218.3122    -236691.3     751.6712    26461.507    10.005939    1399.2479 
     367   -242913.69    6238.2212   -236675.47     754.0778    26401.374    10.005939    1400.1714 
     368   -242916.46    6256.7823   -236659.68    756.32148    26348.453    10.005939    1401.0694 
     369   -242917.89    6273.9644   -236643.92    758.39846    26302.297    10.005939    1401.9431 
     370   -242917.95    6289.7425   -236628.21    760.30572    26263.732    10.005939    1402.7934 
     371   -242916.63    6304.0973   -236612.53    762.04093    26232.514    10.005939    1403.6213 
     372   -242913.92    6317.0177    -236596.9    763.60274    26208.674    10.005939    1404.4275 
     373   -242909.81    6328.4991   -236581.31    764.99062    26193.258    10.005939    1405.2131 
     374    -242904.3    6338.5434   -236565.76    766.20478     26185.69    10.005939    1405.9789 
     375   -242897.41    6347.1595   -236550.25     767.2463      26185.3    10.005939    1406.7257 
     376   -242889.14    6354.3615   -236534.78    768.11687     26192.38    10.005939    1407.4543 
     377   -242879.52    6360.1677   -236519.35    768.81873    26207.186    10.005939    1408.1656 
     378   -242868.56    6364.6015   -236503.96    769.35468    26229.332    10.005939    1408.8602 
     379   -242856.29    6367.6912    -236488.6    769.72817    26259.096    10.005939    1409.5389 
     380   -242842.75    6369.4702   -236473.28    769.94322    26295.584    10.005939    1410.2023 
     381   -242827.96    6369.9748   -236457.99    770.00422     26339.16    10.005939    1410.8512 
     382   -242811.97    6369.2457   -236442.73    769.91607    26390.102    10.005939    1411.4861 
     383   -242794.83    6367.3294    -236427.5    769.68444    26447.178    10.005939    1412.1077 
     384   -242776.57    6364.2781   -236412.29    769.31559    26510.812    10.005939    1412.7165 
     385   -242757.26     6360.149   -236397.11    768.81647    26580.554    10.005939     1413.313 
     386   -242736.95    6355.0039   -236381.94    768.19453    26655.596    10.005939    1413.8979 
     387   -242715.71    6348.9101    -236366.8    767.45791    26735.702    10.005939    1414.4717 
     388   -242693.61    6341.9412   -236351.67     766.6155     26820.64    10.005939    1415.0347 
     389   -242670.73    6334.1754   -236336.55    765.67677    26910.886    10.005939    1415.5875 
     390   -242647.14    6325.6947   -236321.44    764.65162    27005.682    10.005939    1416.1305 
     391   -242622.93    6316.5837   -236306.34    763.55028    27103.528    10.005939    1416.6642 
     392   -242598.17     6306.929   -236291.25    762.38322    27204.568    10.005939    1417.1889 
     393   -242572.97    6296.8194   -236276.15    761.16117    27308.824    10.005939    1417.7051 
     394    -242547.4     6286.344   -236261.05    759.89491    27415.725    10.005939     1418.213 
     395   -242521.54    6275.5938   -236245.95    758.59542     27524.33    10.005939    1418.7131 
     396    -242495.5    6264.6611   -236230.84    757.27386    27634.834    10.005939    1419.2056 
     397   -242469.36    6253.6384   -236215.73    755.94144     27745.74    10.005939    1419.6909 
     398   -242443.22    6242.6179    -236200.6    754.60928    27857.366    10.005939    1420.1693 
     399   -242417.15    6231.6903   -236185.46    753.28834    27968.615    10.005939    1420.6411 
     400   -242391.25    6220.9471   -236170.31     751.9897    28079.686    10.005939    1421.1065 
     401   -242365.61    6210.4781   -236155.14    750.72421    28190.014    10.005939    1421.5658 
     402   -242340.32    6200.3716   -236139.95    749.50253    28299.031    10.005939    1422.0192 
     403   -242315.46     6190.715   -236124.74    748.33524    28405.776    10.005939    1422.4669 
     404   -242291.11    6181.5932   -236109.52     747.2326    28510.357    10.005939    1422.9091 
     405   -242267.36    6173.0872   -236094.27    746.20439    28611.698    10.005939    1423.3461 
     406   -242244.28    6165.2742      -236079    745.25995    28709.945    10.005939    1423.7781 
     407   -242221.94    6158.2272   -236063.71    744.40811    28804.478    10.005939    1424.2051 
     408   -242200.41    6152.0147    -236048.4    743.65715    28894.885    10.005939    1424.6274 
     409   -242179.76    6146.7024   -236033.06    743.01499    28980.559    10.005939    1425.0451 
     410   -242160.05    6142.3496    -236017.7    742.48881      29062.4    10.005939    1425.4583 
     411   -242141.33    6139.0089   -236002.32      742.085    29138.329    10.005939    1425.8673 
     412   -242123.64     6136.729   -235986.91     741.8094     29209.39    10.005939     1426.272 
     413   -242107.03    6135.5523   -235971.48    741.66716    29275.182    10.005939    1426.6728 
     414   -242091.54    6135.5153   -235956.03    741.66268    29335.325    10.005939    1427.0696 
     415    -242077.2    6136.6491   -235940.55    741.79975    29389.705    10.005939    1427.4625 
     416   -242064.03    6138.9794   -235925.06    742.08143    29436.989    10.005939    1427.8518 
     417   -242052.06    6142.5255   -235909.54    742.51009    29479.146    10.005939    1428.2373 
     418    -242041.3    6147.3025      -235894    743.08753    29514.564    10.005939    1428.6193 
     419   -242031.76    6153.3189   -235878.44    743.81479    29542.813    10.005939    1428.9978 
     420   -242023.44    6160.5774   -235862.86     744.6922    29564.207    10.005939    1429.3728 
     421   -242016.35    6169.0746   -235847.27    745.71935    29579.413    10.005939    1429.7443 
     422   -242010.46    6178.8008   -235831.66    746.89505    29588.212    10.005939    1430.1125 
     423   -242005.78    6189.7399   -235816.04    748.21737    29590.416    10.005939    1430.4773 
     424   -242002.28    6201.8689   -235800.41    749.68353     29586.03    10.005939    1430.8388 
     425   -241999.92    6215.1607   -235784.76    751.29024    29574.842    10.005939    1431.1969 
     426   -241998.69     6229.582   -235769.11     753.0335    29557.835    10.005939    1431.5518 
     427   -241998.54    6245.0932   -235753.45    754.90849    29535.122    10.005939    1431.9033 
     428   -241999.43    6261.6502   -235737.78    756.90991    29506.592    10.005939    1432.2515 
     429   -242001.32    6279.2043   -235722.12    759.03185     29471.93    10.005939    1432.5964 
     430   -242004.15    6297.7005   -235706.45    761.26768    29432.256    10.005939    1432.9379 
     431   -242007.87    6317.0799   -235690.79    763.61026     29387.37    10.005939    1433.2761 
     432   -242012.41    6337.2792   -235675.13    766.05196    29337.397    10.005939    1433.6109 
     433   -242017.71    6358.2318   -235659.48    768.58472    29282.894    10.005939    1433.9422 
     434   -242023.71    6379.8691   -235643.85    771.20024    29224.861    10.005939    1434.2701 
     435   -242030.34    6402.1181   -235628.22     773.8897    29161.859    10.005939    1434.5945 
     436   -242037.52    6424.9031   -235612.62    776.64396    29095.347    10.005939    1434.9154 
     437   -242045.19    6448.1478   -235597.04    779.45379     29025.47    10.005939    1435.2326 
     438   -242053.26    6471.7736   -235581.48    782.30968    28953.562    10.005939    1435.5461 
     439   -242061.65    6495.7002   -235565.95    785.20193    28879.211    10.005939    1435.8559 
     440    -242070.3    6519.8467   -235550.46    788.12077     28802.52    10.005939    1436.1619 
     441   -242079.13    6544.1317      -235535    791.05635    28724.088    10.005939    1436.4641 
     442   -242088.05    6568.4736   -235519.58     793.9988    28644.311    10.005939    1436.7622 
     443   -242096.99    6592.7913    -235504.2    796.93832    28563.732    10.005939    1437.0563 
     444   -242105.87    6617.0046   -235488.87    799.86524    28482.527    10.005939    1437.3463 
     445   -242114.62    6641.0347   -235473.59    802.77001    28402.051    10.005939     1437.632 
     446   -242123.17    6664.8042   -235458.36    805.64326     28321.19    10.005939    1437.9133 
     447   -242131.43     6688.237    -235443.2    808.47583    28241.416    10.005939    1438.1903 
     448   -242139.35    6711.2587   -235428.09     811.2587    28162.575    10.005939    1438.4627 
     449   -242146.85    6733.7968   -235413.05    813.98312    28084.477    10.005939    1438.7304 
     450   -242153.86    6755.7818   -235398.07    816.64066    28008.229    10.005939    1438.9934 
     451   -242160.32    6777.1482   -235383.17    819.22345    27935.116    10.005939    1439.2515 
     452   -242166.17    6797.8343   -235368.34    821.72398     27863.55    10.005939    1439.5046 
     453   -242171.37    6817.7814   -235353.59    824.13519    27794.554    10.005939    1439.7526 
     454   -242175.85    6836.9344   -235338.91    826.45042    27729.299    10.005939    1439.9954 
     455   -242179.56    6855.2416   -235324.32     828.6634    27668.046    10.005939    1440.2328 
     456   -242182.46    6872.6555   -235309.81    830.76838    27610.169    10.005939    1440.4647 
     457   -242184.51    6889.1322   -235295.38     832.7601    27556.273    10.005939     1440.691 
     458   -242185.67    6904.6327   -235281.03     834.6338     27506.68    10.005939    1440.9115 
     459    -242185.9    6919.1224   -235266.78    836.38532    27461.611    10.005939    1441.1262 
     460   -242185.18    6932.5714   -235252.61    838.01104    27421.123    10.005939    1441.3348 
     461   -242183.48    6944.9544   -235238.53     839.5079    27384.409    10.005939    1441.5374 
     462   -242180.78    6956.2523   -235224.53    840.87359    27353.195    10.005939    1441.7337 
     463   -242177.07    6966.4502   -235210.62    842.10632    27327.215    10.005939    1441.9236 
     464   -242172.34     6975.537    -235196.8    843.20473    27306.499    10.005939     1442.107 
     465   -242166.57    6983.5075   -235183.06    844.16821    27290.836    10.005939    1442.2838 
     466   -242159.77    6990.3617   -235169.41    844.99674    27280.202    10.005939    1442.4538 
     467   -242151.94     6996.104   -235155.83    845.69087    27274.805    10.005939     1442.617 
     468   -242143.08    7000.7439   -235142.34    846.25174    27274.227    10.005939    1442.7732 
     469   -242133.22    7004.2954   -235128.92    846.68105    27279.549    10.005939    1442.9223 
     470   -242122.35    7006.7771   -235115.58    846.98104     27289.83    10.005939    1443.0642 
     471   -242110.51    7008.2125    -235102.3    847.15455    27304.658    10.005939    1443.1988 
     472   -242097.72    7008.6298   -235089.09    847.20499    27324.987    10.005939     1443.326 
     473   -242084.01    7008.0611   -235075.95    847.13626    27349.811    10.005939    1443.4456 
     474   -242069.41    7006.5432   -235062.86    846.95276    27378.638    10.005939    1443.5577 
     475   -242053.95    7004.1149   -235049.83    846.65923    27411.861    10.005939     1443.662 
     476   -242037.67    7000.8199   -235036.85    846.26094    27450.186    10.005939    1443.7586 
     477   -242020.62    6996.7068   -235023.91    845.76374    27492.952    10.005939    1443.8474 
     478   -242002.84    6991.8262   -235011.02    845.17378    27539.726    10.005939    1443.9282 
     479   -241984.39    6986.2318   -234998.16    844.49751    27590.349    10.005939    1444.0011 
     480   -241965.31    6979.9795   -234985.33    843.74173    27643.826    10.005939     1444.066 
     481   -241945.65    6973.1262   -234972.52    842.91331    27701.689    10.005939    1444.1228 
     482   -241925.47    6965.7321   -234959.74    842.01952     27761.87    10.005939    1444.1715 
     483   -241904.83    6957.8609   -234946.97    841.06804    27824.565    10.005939    1444.2121 
     484   -241883.78    6949.5767   -234934.21    840.06664    27889.258    10.005939    1444.2445 
     485    -241862.4    6940.9441   -234921.45    839.02312    27956.454    10.005939    1444.2687 
     486   -241840.73    6932.0283    -234908.7    837.94539    28025.929    10.005939    1444.2847 
     487   -241818.84    6922.8957   -234895.94    836.84143    28096.595    10.005939    1444.2926 
     488   -241796.79    6913.6124   -234883.17    835.71927    28168.566    10.005939    1444.2922 
     489   -241774.64    6904.2447   -234870.39     834.5869    28241.219    10.005939    1444.2838 
     490   -241752.45    6894.8586    -234857.6    833.45231    28313.986    10.005939    1444.2671 
     491    -241730.3    6885.5186   -234844.78    832.32328    28387.103    10.005939    1444.2424 
     492   -241708.22     6876.288   -234831.93    831.20749    28459.718    10.005939    1444.2095 
     493   -241686.29      6867.23   -234819.06    830.11255    28532.122    10.005939    1444.1687 
     494   -241664.57     6858.405   -234806.16    829.04579    28603.804    10.005939    1444.1199 
     495    -241643.1    6849.8713   -234793.23    828.01423    28673.562    10.005939    1444.0632 
     496   -241621.94    6841.6866   -234780.26    827.02486    28742.565    10.005939    1443.9986 
     497   -241601.16    6833.9072   -234767.25    826.08448    28810.622    10.005939    1443.9264 
     498   -241580.79    6826.5856    -234754.2    825.19944     28876.56    10.005939    1443.8465 
     499   -241560.89    6819.7709   -234741.12    824.37569    28940.463    10.005939    1443.7591 
     500    -241541.5    6813.5112   -234727.99    823.61901    29001.907    10.005939    1443.6642 
     501   -241522.67     6807.851   -234714.82     822.9348    29060.398    10.005939    1443.5621 
     502   -241504.44    6802.8313   -234701.61    822.32802    29116.253    10.005939    1443.4528 
     503   -241486.84    6798.4891   -234688.35    821.80313    29168.329    10.005939    1443.3364 
     504   -241469.91    6794.8592   -234675.05    821.36435    29217.346    10.005939    1443.2131 
     505   -241453.69    6791.9745   -234661.72    821.01565    29263.205    10.005939    1443.0831 
     506    -241438.2    6789.8641   -234648.34    820.76054    29305.184    10.005939    1442.9465 
     507   -241423.47    6788.5516   -234634.92    820.60189    29342.747    10.005939    1442.8035 
     508   -241409.52    6788.0572   -234621.47    820.54212    29376.822    10.005939    1442.6542 
     509   -241396.37    6788.3985   -234607.98    820.58338    29407.337    10.005939    1442.4988 
     510   -241384.04    6789.5894   -234594.45    820.72734    29433.218    10.005939    1442.3375 
     511   -241372.54    6791.6403    -234580.9    820.97525    29455.312    10.005939    1442.1704 
     512   -241361.87    6794.5579   -234567.31    821.32793    29472.805    10.005939    1441.9978 
     513   -241352.04    6798.3454    -234553.7    821.78576    29486.134    10.005939    1441.8198 
     514   -241343.07    6803.0033   -234540.06    822.34881    29494.405    10.005939    1441.6366 
     515   -241334.94    6808.5286   -234526.41    823.01671    29497.954    10.005939    1441.4485 
     516   -241327.65    6814.9143   -234512.73    823.78861    29497.155    10.005939    1441.2556 
     517   -241321.19    6822.1495   -234499.04    824.66321    29491.805    10.005939    1441.0582 
     518   -241315.57    6830.2207   -234485.35    825.63885    29481.933    10.005939    1440.8563 
     519   -241310.75    6839.1116   -234471.64    826.71359     29468.66    10.005939    1440.6504 
     520   -241306.73    6848.8022   -234457.93    827.88499    29451.149    10.005939    1440.4405 
     521   -241303.49    6859.2699   -234444.22    829.15033     29429.32    10.005939    1440.2269 
     522      -241301    6870.4902   -234430.51    830.50664    29403.293    10.005939    1440.0098 
     523   -241299.25    6882.4351   -234416.82    831.95055    29373.489    10.005939    1439.7894 
     524   -241298.21     6895.074   -234403.13    833.47834    29339.744    10.005939     1439.566 
     525   -241297.84    6908.3746   -234389.46    835.08612    29301.729    10.005939    1439.3397 
     526   -241298.12    6922.3028   -234375.82    836.76977    29259.783    10.005939    1439.1108 
     527   -241299.02     6936.822    -234362.2    838.52485    29214.668    10.005939    1438.8795 
     528    -241300.5    6951.8916   -234348.61    840.34647    29167.068    10.005939     1438.646 
     529   -241302.52    6967.4696   -234335.05    842.22954    29116.608    10.005939    1438.4105 
     530   -241305.05    6983.5145   -234321.53    844.16905    29063.381    10.005939    1438.1733 
     531   -241308.04     6999.983   -234308.06    846.15976    29007.738    10.005939    1437.9345 
     532   -241311.46    7016.8295   -234294.63    848.19618    28949.773    10.005939    1437.6944 
     533   -241315.27    7034.0077   -234281.26    850.27269    28889.106    10.005939    1437.4532 
     534   -241319.42    7051.4695   -234267.95    852.38347    28826.179    10.005939    1437.2111 
     535   -241323.87    7069.1661    -234254.7    854.52264    28762.368    10.005939    1436.9683 
     536   -241328.57    7087.0484   -234241.52    856.68425    28696.477    10.005939    1436.7251 
     537   -241333.48    7105.0677   -234228.41    858.86243    28629.451    10.005939    1436.4815 
     538   -241338.55    7123.1754   -234215.38     861.0513     28561.93    10.005939    1436.2378 
     539   -241343.75    7141.3217   -234202.43    863.24483    28494.222    10.005939    1435.9943 
     540   -241349.02     7159.458   -234189.56    865.43715    28425.221    10.005939    1435.7511 
     541   -241354.33    7177.5358   -234176.79     867.6224     28355.52    10.005939    1435.5084 
     542   -241359.63    7195.5063   -234164.12    869.79467    28285.709    10.005939    1435.2664 
     543   -241364.87    7213.3224   -234151.55    871.94829    28216.932    10.005939    1435.0253 
     544   -241370.02    7230.9372   -234139.08    874.07757    28148.319    10.005939    1434.7853 
     545   -241375.02    7248.3048   -234126.72    876.17697    28079.967    10.005939    1434.5465 
     546   -241379.86    7265.3826   -234114.48    878.24134    28011.739    10.005939    1434.3092 
     547   -241384.48    7282.1275   -234102.35    880.26547    27944.711    10.005939    1434.0735 
     548   -241388.85    7298.4998   -234090.35    882.24456    27879.046    10.005939    1433.8396 
     549   -241392.93    7314.4615   -234078.47    884.17401    27815.424    10.005939    1433.6077 
     550    -241396.7    7329.9742   -234066.72    886.04919    27753.945    10.005939    1433.3779 
     551   -241400.11    7345.0022   -234055.11    887.86578    27693.499    10.005939    1433.1503 
     552   -241403.15    7359.5122   -234043.63    889.61975     27634.68    10.005939    1432.9253 
     553   -241405.77    7373.4732    -234032.3    891.30736    27578.055    10.005939    1432.7029 
     554   -241407.96    7386.8584    -234021.1    892.92536    27524.153    10.005939    1432.4833 
     555    -241409.7    7399.6418   -234010.05    894.47063    27472.464    10.005939    1432.2667 
     556   -241410.95    7411.7988   -233999.15    895.94016    27423.286    10.005939    1432.0532 
     557   -241411.71    7423.3082    -233988.4    897.33143    27377.008    10.005939    1431.8429 
     558   -241411.95    7434.1509    -233977.8     898.6421    27332.319    10.005939    1431.6361 
     559   -241411.66    7444.3102   -233967.35    899.87015    27292.288    10.005939    1431.4329 
     560   -241410.83    7453.7745   -233957.06    901.01421    27254.296    10.005939    1431.2334 
     561   -241409.46     7462.537   -233946.92    902.07341    27218.806    10.005939    1431.0378 
     562   -241407.53     7470.591   -233936.94    903.04698    27186.922    10.005939    1430.8463 
     563   -241405.04    7477.9312   -233927.11    903.93427    27157.688    10.005939    1430.6589 
     564   -241401.99    7484.5561   -233917.44    904.73509    27131.264    10.005939    1430.4758 
     565   -241398.39    7490.4676   -233907.92    905.44968    27108.038    10.005939    1430.2972 
     566   -241394.23    7495.6711   -233898.56    906.07867    27087.231    10.005939    1430.1232 
     567   -241389.53    7500.1714   -233889.35    906.62267    27069.497    10.005939    1429.9539 
     568   -241384.27    7503.9755    -233880.3    907.08251    27055.214    10.005939    1429.7895 
     569   -241378.49    7507.0941    -233871.4    907.45949    27042.983    10.005939    1429.6302 
     570   -241372.18    7509.5394   -233862.64    907.75508     27034.02    10.005939    1429.4759 
     571   -241365.36    7511.3267   -233854.03    907.97112    27027.836    10.005939     1429.327 
     572   -241358.04    7512.4719   -233845.57    908.10956    27024.493    10.005939    1429.1835 
     573   -241350.24    7512.9939   -233837.24    908.17266    27024.246    10.005939    1429.0455 
     574   -241341.97    7512.9153   -233829.06    908.16315    27025.752    10.005939    1428.9132 
     575   -241333.26    7512.2612      -233821    908.08409    27029.807    10.005939    1428.7866 
     576   -241324.14    7511.0619   -233813.08    907.93912    27035.275    10.005939     1428.666 
     577   -241314.63    7509.3493   -233805.28    907.73211    27041.952    10.005939    1428.5513 
     578   -241304.77    7507.1563   -233797.61    907.46701    27051.227    10.005939    1428.4429 
     579   -241294.57    7504.5183   -233790.05    907.14813    27063.566    10.005939    1428.3406 
     580   -241284.08    7501.4698   -233782.61    906.77963    27076.989    10.005939    1428.2448 
     581   -241273.32    7498.0449   -233775.28    906.36563    27091.943    10.005939    1428.1554 
     582   -241262.33    7494.2816   -233768.04    905.91071     27107.99    10.005939    1428.0726 
     583   -241251.13    7490.2169   -233760.91    905.41937    27125.322    10.005939    1427.9966 
     584   -241239.75    7485.8824   -233753.87    904.89542    27142.899    10.005939    1427.9273 
     585   -241228.22    7481.3039   -233746.92    904.34196    27160.821    10.005939     1427.865 
     586   -241216.55    7476.5022   -233740.05    903.76153    27179.969    10.005939    1427.8097 
     587   -241204.75    7471.4895   -233733.26    903.15559    27199.275    10.005939    1427.7615 
     588    -241192.8    7466.2542   -233726.55    902.52275    27219.573    10.005939    1427.7205 
     589   -241180.64     7460.732   -233719.91    901.85523    27241.144    10.005939    1427.6868 
     590   -241168.11    7454.7715   -233713.34    901.13472    27264.629    10.005939    1427.6604 
     591   -241154.96    7448.1324   -233706.82    900.33219    27290.191    10.005939    1427.6416 
     592   -241140.95    7440.6156   -233700.33    899.42355    27316.612    10.005939    1427.6303 
     593   -241126.21    7432.3709   -233693.84    898.42693    27342.913    10.005939    1427.6266 
     594   -241111.48    7424.1286   -233687.35     897.4306    27366.605    10.005939    1427.6305 
     595   -241097.94    7417.0445    -233680.9    896.57427    27386.719    10.005939    1427.6422 
     596   -241086.65    7412.1307   -233674.52    895.98029    27402.024    10.005939    1427.6617 
     597   -241077.86    7409.6286   -233668.23    895.67784    27412.945    10.005939    1427.6891 
     598   -241070.86    7408.8768   -233661.98    895.58695    27419.053    10.005939    1427.7243 
     599   -241064.51    7408.7944   -233655.72    895.57699      27421.4    10.005939    1427.7674 
     600   -241057.95    7408.5281   -233649.42    895.54481    27421.715    10.005939    1427.8185 
     601   -241050.85    7407.7542    -233643.1    895.45126    27421.791    10.005939    1427.8776 
     602   -241043.34     7406.559   -233636.78    895.30678    27422.979    10.005939    1427.9446 
     603   -241035.65    7405.1695   -233630.48    895.13882    27423.918    10.005939    1428.0196 
     604   -241027.97    7403.7764   -233624.19    894.97041    27424.292    10.005939    1428.1026 
     605   -241020.41    7402.5009   -233617.91    894.81623    27422.736    10.005939    1428.1936 
     606   -241013.06    7401.4229   -233611.63    894.68593    27419.764    10.005939    1428.2926 
     607   -241005.96    7400.5969   -233605.36    894.58608    27414.834    10.005939    1428.3995 
     608   -240999.15    7400.0549    -233599.1    894.52057    27408.373    10.005939    1428.5143 
     609   -240992.65    7399.8143   -233592.83    894.49148    27400.197    10.005939     1428.637 
     610   -240986.46    7399.8935   -233586.57    894.50105    27389.968    10.005939    1428.7674 
     611   -240980.64    7400.3364    -233580.3     894.5546    27378.186    10.005939    1428.9056 
     612   -240975.26    7401.2291   -233574.03    894.66251    27363.552    10.005939    1429.0514 
     613   -240970.45    7402.6901   -233567.76    894.83911    27346.015    10.005939    1429.2047 
     614   -240966.34    7404.8391    -233561.5    895.09888     27325.21    10.005939    1429.3654 
     615   -240962.99    7407.7498   -233555.24    895.45073    27301.695    10.005939    1429.5335 
     616   -240960.41     7411.413      -233549    895.89354    27274.847    10.005939    1429.7088 
     617    -240958.5    7415.7342   -233542.76    896.41589     27244.96    10.005939    1429.8911 
     618    -240957.1    7420.5661   -233536.54    896.99996    27211.478    10.005939    1430.0804 
     619   -240956.08    7425.7577   -233530.32    897.62752      27176.5    10.005939    1430.2764 
     620   -240955.31    7431.1968   -233524.11    898.28501    27140.014    10.005939    1430.4789 
     621   -240954.75    7436.8245   -233517.93    898.96528    27101.715    10.005939    1430.6879 
     622   -240954.38    7442.6168   -233511.76    899.66546    27063.028    10.005939     1430.903 
     623   -240954.19    7448.5639   -233505.63    900.38435     27023.37    10.005939    1431.1242 
     624   -240954.18    7454.6544   -233499.52    901.12057    26981.995    10.005939    1431.3511 
     625   -240954.33    7460.8699   -233493.46     901.8719    26939.089    10.005939    1431.5835 
     626   -240954.62    7467.1941   -233487.43    902.63637     26895.42    10.005939    1431.8212 
     627   -240955.07    7473.6239   -233481.44    903.41361    26850.558    10.005939    1432.0639 
     628   -240955.68    7480.1751   -233475.51    904.20551    26804.573    10.005939    1432.3114 
     629    -240956.5    7486.8777   -233469.62    905.01572    26757.698    10.005939    1432.5634 
     630   -240957.56    7493.7613    -233463.8    905.84782    26709.383    10.005939    1432.8197 
     631   -240958.88    7500.8387   -233458.04    906.70334     26659.29    10.005939    1433.0798 
     632   -240960.44    7508.0918   -233452.35    907.58009    26607.881    10.005939    1433.3435 
     633    -240962.2    7515.4696   -233446.73    908.47193    26555.411    10.005939    1433.6105 
     634   -240964.09    7522.8995   -233441.19    909.37006    26501.682    10.005939    1433.8804 
     635   -240966.04    7530.3041   -233435.74    910.26512    26448.153    10.005939     1434.153 
     636   -240967.98    7537.6173   -233430.36    911.14914    26393.672    10.005939    1434.4279 
     637   -240969.87    7544.7912   -233425.08    912.01632    26338.514    10.005939    1434.7046 
     638   -240971.69    7551.7953   -233419.89    912.86299    26284.029    10.005939    1434.9829 
     639   -240973.42     7558.613   -233414.81    913.68711     26230.82    10.005939    1435.2625 
     640   -240975.06    7565.2352   -233409.83     914.4876    26178.566    10.005939    1435.5428 
     641   -240976.62    7571.6578   -233404.96    915.26397      26125.7    10.005939    1435.8235 
     642   -240978.08      7577.88    -233400.2    916.01611    26073.062    10.005939    1436.1043 
     643   -240979.47    7583.9055   -233395.57    916.74447    26020.102    10.005939    1436.3848 
     644    -240980.8    7589.7422   -233391.05    917.45002    25967.651    10.005939    1436.6645 
     645   -240982.07    7595.4005   -233386.67    918.13399    25915.144    10.005939     1436.943 
     646    -240983.3    7600.8888   -233382.41    918.79741    25863.396    10.005939      1437.22 
     647    -240984.5    7606.2074   -233378.29    919.44033    25811.547    10.005939    1437.4951 
     648   -240985.66    7611.3458   -233374.31    920.06147     25759.33    10.005939    1437.7677 
     649   -240986.76    7616.2859   -233370.48    920.65862    25707.909    10.005939    1438.0376 
     650   -240987.78    7621.0014   -233366.78    921.22864    25657.677    10.005939    1438.3043 
     651    -240988.7    7625.4606   -233363.24    921.76767    25607.992    10.005939    1438.5674 
     652   -240989.48    7629.6334   -233359.85    922.27207    25559.237    10.005939    1438.8264 
     653    -240990.1    7633.4937   -233356.61     922.7387     25510.32    10.005939    1439.0811 
     654   -240990.55    7637.0209   -233353.52    923.16507    25462.116    10.005939    1439.3309 
     655    -240990.8     7640.202    -233350.6    923.54961    25415.333    10.005939    1439.5754 
     656   -240990.87     7643.028   -233347.84    923.89122    25369.596    10.005939    1439.8143 
     657   -240990.74     7645.492   -233345.24    924.18906    25324.279    10.005939    1440.0472 
     658    -240990.4    7647.5901   -233342.81    924.44269    25280.838    10.005939    1440.2735 
     659   -240989.87    7649.3196   -233340.55    924.65175    25237.844    10.005939    1440.4931 
     660   -240989.13    7650.6803   -233338.45    924.81622    25195.731    10.005939    1440.7054 
     661    -240988.2    7651.6732   -233336.53    924.93625    25154.493    10.005939    1440.9101 
     662   -240987.07    7652.3002   -233334.77    925.01204    25113.464    10.005939    1441.1069 
     663   -240985.75     7652.567   -233333.19     925.0443    25073.484    10.005939    1441.2952 
     664   -240984.25    7652.4819   -233331.77    925.03401    25034.827    10.005939    1441.4749 
     665   -240982.58    7652.0548   -233330.53    924.98237      24995.8    10.005939    1441.6454 
     666   -240980.75     7651.298   -233329.45     924.8909     24957.99    10.005939    1441.8066 
     667   -240978.78    7650.2277   -233328.55    924.76152     24920.37    10.005939     1441.958 
     668   -240976.67    7648.8608   -233327.81    924.59628    24884.075    10.005939    1442.0993 
     669   -240974.46    7647.2141   -233327.24    924.39723    24849.023    10.005939    1442.2302 
     670   -240972.15    7645.3089   -233326.84    924.16693    24813.997    10.005939    1442.3505 
     671   -240969.77    7643.1684    -233326.6    923.90818    24778.955    10.005939    1442.4598 
     672   -240967.34    7640.8144   -233326.52    923.62363    24744.254    10.005939    1442.5579 
     673   -240964.88    7638.2688   -233326.61    923.31593    24709.074    10.005939    1442.6446 
     674    -240962.4    7635.5545   -233326.85    922.98782    24674.426    10.005939    1442.7196 
     675   -240959.94    7632.6934   -233327.25    922.64197    24639.371    10.005939    1442.7828 
     676   -240957.51    7629.7067    -233327.8    922.28094    24604.009    10.005939    1442.8339 
     677   -240955.12    7626.6148    -233328.5    921.90718    24568.843    10.005939    1442.8728 
     678   -240952.79    7623.4366   -233329.35    921.52301      24533.4    10.005939    1442.8994 
     679   -240950.54    7620.1925   -233330.35    921.13086    24498.013    10.005939    1442.9136 
     680   -240948.39    7616.9004   -233331.49     920.7329    24461.087    10.005939    1442.9152 
     681   -240946.34    7613.5756   -233332.77    920.33101    24424.588    10.005939    1442.9042 
     682   -240944.42     7610.233   -233334.18    919.92694    24387.183    10.005939    1442.8805 
     683   -240942.62     7606.886   -233335.73    919.52236    24349.141    10.005939     1442.844 
     684   -240940.96     7603.546   -233337.41    919.11863    24311.274    10.005939    1442.7949 
     685   -240939.44    7600.2225   -233339.22    918.71688    24271.211    10.005939     1442.733 
     686   -240938.08    7596.9251   -233341.15    918.31828    24230.544    10.005939    1442.6583 
     687   -240936.87     7593.662   -233343.21    917.92384    24189.146    10.005939     1442.571 
     688   -240935.82      7590.44   -233345.38    917.53436    24147.723    10.005939    1442.4711 
     689   -240934.94     7587.266   -233347.67    917.15069    24104.969    10.005939    1442.3587 
     690   -240934.23    7584.1468   -233350.08    916.77364    24061.482    10.005939    1442.2338 
     691   -240933.68    7581.0865   -233352.59    916.40371     24017.09    10.005939    1442.0966 
     692    -240933.3    7578.0878   -233355.21    916.04122     23971.79    10.005939    1441.9472 
     693   -240933.09    7575.1544   -233357.94    915.68664    23925.816    10.005939    1441.7857 
     694   -240933.06    7572.2909   -233360.77     915.3405    23878.374    10.005939    1441.6124 
     695   -240933.19    7569.4991   -233363.69    915.00303    23830.277    10.005939    1441.4273 
     696   -240933.49      7566.78   -233366.71    914.67434    23780.265    10.005939    1441.2308 
     697   -240933.97    7564.1357   -233369.83     914.3547     23729.73    10.005939    1441.0229 
     698   -240934.61    7561.5683   -233373.04    914.04435    23678.555    10.005939    1440.8039 
     699   -240935.41    7559.0794   -233376.33    913.74348    23626.561    10.005939    1440.5741 
     700   -240936.38    7556.6684   -233379.71    913.45205    23573.232    10.005939    1440.3337 
     701   -240937.52    7554.3345   -233383.18    913.16993    23517.849    10.005939    1440.0829 
     702   -240938.81    7552.0772   -233386.73    912.89706    23461.449    10.005939     1439.822 
     703   -240940.25    7549.8967   -233390.35    912.63348    23405.019    10.005939    1439.5513 
     704   -240941.85     7547.793   -233394.06    912.37919    23347.389    10.005939    1439.2711 
     705    -240943.6    7545.7653   -233397.83    912.13407    23288.881    10.005939    1438.9816 
     706    -240945.5    7543.8125   -233401.68    911.89803    23229.977    10.005939    1438.6832 
     707   -240947.54    7541.9323    -233405.6    911.67074    23170.126    10.005939    1438.3761 
     708   -240949.72    7540.1217   -233409.59    911.45188    23109.205    10.005939    1438.0607 
     709   -240952.03     7538.379   -233413.65    911.24122    23047.348    10.005939    1437.7373 
     710   -240954.47    7536.7031   -233417.77    911.03864    22985.254    10.005939    1437.4061 
     711   -240957.04    7535.0913   -233421.95     910.8438    22922.544    10.005939    1437.0676 
     712   -240959.74    7533.5403    -233426.2    910.65631    22858.651    10.005939     1436.722 
     713   -240962.55    7532.0466    -233430.5    910.47576    22794.523    10.005939    1436.3696 
     714   -240965.47    7530.6064   -233434.86    910.30166    22729.788    10.005939    1436.0108 
     715   -240968.49    7529.2161   -233439.28     910.1336    22663.446    10.005939    1435.6459 
     716   -240971.62     7527.871   -233443.75    909.97101    22596.794    10.005939    1435.2752 
     717   -240974.84    7526.5661   -233448.27    909.81327    22529.277    10.005939    1434.8991 
     718   -240978.15    7525.2967   -233452.85    909.65983    22462.164    10.005939     1434.518 
     719   -240981.53    7524.0572   -233457.47       909.51     22393.89    10.005939     1434.132 
     720   -240984.99     7522.842   -233462.15     909.3631    22325.112    10.005939    1433.7417 
     721   -240988.51    7521.6444   -233466.87    909.21833    22256.362    10.005939    1433.3472 
     722   -240992.09    7520.4576   -233471.63    909.07488    22188.418    10.005939    1432.9489 
     723   -240995.72    7519.2764   -233476.44    908.93209    22120.391    10.005939    1432.5472 
     724   -240999.39    7518.0952    -233481.3    908.78931    22051.654    10.005939    1432.1423 
     725    -241003.1    7516.9072   -233486.19     908.6457    21982.782    10.005939    1431.7346 
     726   -241006.83    7515.7063   -233491.12    908.50054    21913.682    10.005939    1431.3244 
     727   -241010.58    7514.4858   -233496.09    908.35301    21844.662    10.005939    1430.9119 
     728   -241014.34    7513.2391    -233501.1    908.20229     21775.76    10.005939    1430.4976 
     729    -241018.1    7511.9602   -233506.14     908.0477    21707.036    10.005939    1430.0816 
     730   -241021.86    7510.6422   -233511.22    907.88838    21637.869    10.005939    1429.6643 
     731   -241025.61    7509.2779   -233516.33    907.72347    21569.985    10.005939     1429.246 
     732   -241029.33    7507.8605   -233521.47    907.55214    21501.883    10.005939    1428.8269 
     733   -241033.02    7506.3848   -233526.64    907.37375    21433.604    10.005939    1428.4074 
     734   -241036.68    7504.8455   -233531.84    907.18768    21365.998    10.005939    1427.9876 
     735    -241040.3    7503.2372   -233537.06    906.99327    21299.513    10.005939    1427.5678 
     736   -241043.86    7501.5549   -233542.31    906.78991    21233.033    10.005939    1427.1482 
     737   -241047.37     7499.793   -233547.58    906.57693    21166.566    10.005939    1426.7292 
     738   -241050.82     7497.947   -233552.87    906.35378    21101.107    10.005939    1426.3109 
     739   -241054.19     7496.014   -233558.18    906.12013     21035.95    10.005939    1425.8935 
     740    -241057.5    7493.9905   -233563.51    905.87553    20971.377    10.005939    1425.4773 
     741   -241060.72     7491.873   -233568.85    905.61956    20907.004    10.005939    1425.0625 
     742   -241063.86    7489.6593    -233574.2    905.35197    20843.232    10.005939    1424.6491 
     743   -241066.92    7487.3473   -233579.57    905.07249    20781.286    10.005939    1424.2375 
     744   -241069.88     7484.935   -233584.95    904.78089    20719.509    10.005939    1423.8277 
     745   -241072.75    7482.4223   -233590.33    904.47715    20658.332    10.005939      1423.42 
     746   -241075.53      7479.81   -233595.72    904.16139    20597.655    10.005939    1423.0145 
     747   -241078.21    7477.0996   -233601.11    903.83374    20537.941    10.005939    1422.6113 
     748   -241080.79     7474.292    -233606.5    903.49437    20479.296    10.005939    1422.2105 
     749   -241083.27    7471.3894   -233611.88     903.1435    20422.069    10.005939    1421.8124 
     750   -241085.66    7468.3946   -233617.27    902.78148    20363.971    10.005939    1421.4169 
     751   -241087.95    7465.3119   -233622.64    902.40884    20306.385    10.005939    1421.0241 
     752   -241090.15    7462.1465   -233628.01    902.02621    20250.335    10.005939    1420.6343 
     753   -241092.26    7458.9034   -233633.36    901.63418    20194.713    10.005939    1420.2473 
     754   -241094.29    7455.5885    -233638.7    901.23349    20139.961    10.005939    1419.8634 
     755   -241096.23    7452.2088   -233644.02    900.82494    20086.019    10.005939    1419.4826 
     756    -241098.1    7448.7707   -233649.33    900.40934    20032.083    10.005939    1419.1048 
     757   -241099.89    7445.2808   -233654.61    899.98748    19978.531    10.005939    1418.7302 
     758   -241101.61    7441.7479   -233659.86    899.56042    19926.158    10.005939    1418.3587 
     759   -241103.27    7438.1806   -233665.09    899.12921    19874.797    10.005939    1417.9904 
     760   -241104.88    7434.5857   -233670.29    898.69466    19823.131    10.005939    1417.6254 
     761   -241106.43    7430.9705   -233675.46    898.25765     19771.88    10.005939    1417.2635 
     762   -241107.94    7427.3446   -233680.59    897.81935    19721.676    10.005939    1416.9048 
     763   -241109.41    7423.7173   -233685.69    897.38089    19672.223    10.005939    1416.5493 
     764   -241110.84    7420.0967   -233690.74    896.94322    19623.512    10.005939    1416.1969 
     765   -241112.25    7416.4904   -233695.76    896.50729    19574.974    10.005939    1415.8477 
     766   -241113.63    7412.9067   -233700.73     896.0741    19527.567    10.005939    1415.5016 
     767      -241115    7409.3554   -233705.65    895.64481    19480.082    10.005939    1415.1585 
     768   -241116.37    7405.8433   -233710.52    895.22027    19432.328    10.005939    1414.8185 
     769   -241117.72    7402.3779   -233715.35    894.80137    19385.364    10.005939    1414.4814 
     770   -241119.08    7398.9663   -233720.11    894.38898    19338.044    10.005939    1414.1473 
     771   -241120.44    7395.6145   -233724.83    893.98381    19291.456    10.005939    1413.8159 
[...]
    9814   -240608.49    7452.3641   -233156.13    900.84372    1640.5292    10.005939    1265.6728 
    9815   -240607.96    7454.6258   -233153.33    901.11711    1601.3974    10.005939    1265.5625 
    9816   -240607.49    7456.9299   -233150.56    901.39563    1563.1233    10.005939    1265.4469 
    9817   -240607.07    7459.2703    -233147.8    901.67853     1524.047    10.005939    1265.3262 
    9818    -240606.7      7461.64   -233145.06    901.96499    1484.5593    10.005939    1265.2005 
    9819   -240606.38    7464.0314   -233142.35    902.25406    1445.0828    10.005939    1265.0701 
    9820    -240606.1    7466.4365   -233139.66    902.54478    1405.1459    10.005939     1264.935 
    9821   -240605.84    7468.8477   -233136.99    902.83626    1365.3973    10.005939    1264.7955 
    9822   -240605.61    7471.2578   -233134.36    903.12759     1325.259    10.005939    1264.6518 
    9823    -240605.4     7473.658   -233131.75    903.41772    1285.6668    10.005939     1264.504 
    9824   -240605.21    7476.0402   -233129.17    903.70568    1245.7586    10.005939    1264.3523 
    9825   -240605.02    7478.3965   -233126.62    903.99051    1205.3352    10.005939     1264.197 
    9826   -240604.82    7480.7178   -233124.11    904.27111    1165.2583    10.005939    1264.0381 
    9827   -240604.62    7482.9955   -233121.63    904.54644     1124.918    10.005939    1263.8759 
    9828   -240604.41    7485.2218   -233119.19    904.81556    1084.5716    10.005939    1263.7106 
    9829   -240604.17    7487.3891   -233116.78    905.07755    1044.2132    10.005939    1263.5423 
    9830   -240603.91    7489.4896   -233114.42    905.33145    1003.6507    10.005939    1263.3712 
    9831   -240603.61     7491.515    -233112.1    905.57629    963.49844    10.005939    1263.1975 
    9832   -240603.28    7493.4583   -233109.82     905.8112    923.22964    10.005939    1263.0214 
    9833   -240602.89    7495.3127   -233107.58    906.03535     883.2885    10.005939     1262.843 
    9834   -240602.46    7497.0728   -233105.39    906.24811    843.46711    10.005939    1262.6626 
    9835   -240601.98    7498.7336   -233103.24    906.44887    803.51261    10.005939    1262.4802 
    9836   -240601.43     7500.288   -233101.15    906.63676    763.38513    10.005939     1262.296 
    9837   -240600.83    7501.7293    -233099.1    906.81099    724.40728    10.005939    1262.1103 
    9838   -240600.15    7503.0524   -233097.09    906.97092    685.98702    10.005939    1261.9231 
    9839   -240599.39    7504.2515   -233095.14    907.11588    647.31765    10.005939    1261.7347 
    9840   -240598.56    7505.3214   -233093.24    907.24521    608.38389    10.005939    1261.5452 
    9841   -240597.65    7506.2593   -233091.39    907.35858    569.66026    10.005939    1261.3548 
    9842   -240596.66     7507.062   -233089.59    907.45561    531.85189    10.005939    1261.1636 
    9843   -240595.57    7507.7248   -233087.85    907.53573    494.13182    10.005939    1260.9718 
    9844    -240594.4    7508.2439   -233086.15    907.59848    456.62676    10.005939    1260.7795 
    9845   -240593.13     7508.617   -233084.51    907.64358    420.49852    10.005939    1260.5869 
    9846   -240591.77    7508.8426   -233082.92    907.67085    383.90968    10.005939    1260.3942 
    9847   -240590.31    7508.9202   -233081.39    907.68023    347.28953    10.005939    1260.2014 
    9848   -240588.76    7508.8504   -233079.91    907.67179    311.41871    10.005939    1260.0088 
    9849   -240587.11    7508.6322   -233078.48    907.64542    275.99023    10.005939    1259.8165 
    9850   -240585.36    7508.2648    -233077.1    907.60101    240.83285    10.005939    1259.6246 
    9851   -240583.52    7507.7506   -233075.77    907.53884    205.87896    10.005939    1259.4333 
    9852   -240581.59    7507.0909    -233074.5     907.4591    171.80333    10.005939    1259.2426 
    9853   -240579.56     7506.288   -233073.27    907.36205    137.95017    10.005939    1259.0528 
    9854   -240577.44    7505.3453    -233072.1    907.24809    103.89039    10.005939     1258.864 
    9855   -240575.24    7504.2654   -233070.97    907.11755     70.10568    10.005939    1258.6762 
    9856   -240572.95    7503.0518    -233069.9    906.97085    37.246796    10.005939    1258.4898 
    9857   -240570.57    7501.7101   -233068.86    906.80867    3.9598827    10.005939    1258.3046 
    9858   -240568.13    7500.2459   -233067.88    906.63168   -28.830588    10.005939     1258.121 
    9859    -240565.6    7498.6648   -233066.94    906.44055   -61.697567    10.005939     1257.939 
    9860   -240563.02    7496.9725   -233066.04    906.23599   -93.836052    10.005939    1257.7587 
    9861   -240560.36    7495.1751   -233065.19    906.01872   -125.62147    10.005939    1257.5803 
    9862   -240557.65    7493.2798   -233064.37    905.78961   -157.37162    10.005939    1257.4038 
    9863   -240554.89    7491.2938    -233063.6    905.54954   -189.05775    10.005939    1257.2295 
    9864   -240552.09    7489.2251   -233062.86    905.29948   -220.59105    10.005939    1257.0574 
    9865   -240549.24    7487.0823   -233062.16    905.04046   -252.42654    10.005939    1256.8876 
    9866   -240546.36     7484.873   -233061.49     904.7734   -284.59743    10.005939    1256.7203 
    9867   -240543.46     7482.606   -233060.85    904.49936   -316.10317    10.005939    1256.5556 
    9868   -240540.53    7480.2898   -233060.24    904.21938   -347.52175    10.005939    1256.3936 
    9869    -240537.6    7477.9325   -233059.67    903.93443    -378.4339    10.005939    1256.2343 
    9870   -240534.66    7475.5427   -233059.11    903.64555   -409.66372    10.005939     1256.078 
    9871   -240531.71    7473.1285   -233058.59    903.35372   -441.25598    10.005939    1255.9247 
    9872   -240528.78    7470.6985   -233058.08    903.05998   -472.72387    10.005939    1255.7746 
    9873   -240525.86    7468.2614   -233057.59    902.76539   -504.65994    10.005939    1255.6276 
    9874   -240522.95    7465.8241   -233057.13    902.47077   -535.65357    10.005939     1255.484 
    9875   -240520.07    7463.3945   -233056.68    902.17707   -566.86584    10.005939    1255.3439 
    9876   -240517.22    7460.9803   -233056.24    901.88525   -598.03921    10.005939    1255.2073 
    9877   -240514.41    7458.5885   -233055.82    901.59612   -630.35656    10.005939    1255.0744 
    9878   -240511.63    7456.2258   -233055.41    901.31052   -662.16566    10.005939    1254.9452 
    9879    -240508.9    7453.8977      -233055    901.02909   -695.09545    10.005939    1254.8199 
    9880   -240506.21    7451.6094    -233054.6    900.75249    -727.7133    10.005939    1254.6985 
    9881   -240503.58    7449.3664   -233054.21    900.48135   -760.27933    10.005939    1254.5812 
    9882      -240501    7447.1728   -233053.82    900.21618   -793.70779    10.005939     1254.468 
    9883   -240498.47    7445.0323   -233053.44    899.95744    -826.7355    10.005939     1254.359 
    9884      -240496    7442.9481   -233053.05    899.70551    -860.4045    10.005939    1254.2544 
    9885   -240493.59    7440.9239   -233052.66    899.46082   -894.13526    10.005939    1254.1542 
    9886   -240491.23    7438.9628   -233052.27    899.22377   -927.75526    10.005939    1254.0584 
    9887   -240488.94    7437.0674   -233051.87    898.99464   -962.16292    10.005939    1253.9673 
    9888   -240486.71    7435.2402   -233051.47    898.77377   -996.64993    10.005939    1253.8807 
    9889   -240484.54    7433.4817   -233051.06     898.5612   -1031.6779    10.005939     1253.799 
    9890   -240482.43    7431.7919   -233050.63    898.35694   -1066.8507    10.005939     1253.722 
    9891   -240480.37    7430.1716    -233050.2    898.16107   -1102.8005    10.005939    1253.6499 
    9892   -240478.38     7428.622   -233049.76    897.97376   -1139.7726    10.005939    1253.5828 
    9893   -240476.44    7427.1436    -233049.3    897.79505   -1176.7074    10.005939    1253.5207 
    9894   -240474.56    7425.7351   -233048.83     897.6248   -1213.2858    10.005939    1253.4636 
    9895   -240472.74     7424.396   -233048.34    897.46292   -1251.2155    10.005939    1253.4117 
    9896   -240470.96     7423.125   -233047.83    897.30929   -1288.4471    10.005939     1253.365 
    9897   -240469.23    7421.9204   -233047.31    897.16367   -1326.1841    10.005939    1253.3235 
    9898   -240467.55    7420.7806   -233046.77    897.02589   -1364.5102    10.005939    1253.2873 
    9899   -240465.92    7419.7046   -233046.21    896.89583   -1402.2658    10.005939    1253.2564 
    9900   -240464.32    7418.6918   -233045.63    896.77339    -1440.048    10.005939    1253.2308 
    9901   -240462.77    7417.7405   -233045.03     896.6584   -1478.3749    10.005939    1253.2107 
    9902   -240461.25    7416.8491    -233044.4    896.55065   -1515.8632    10.005939     1253.196 
    9903   -240459.77    7416.0157   -233043.76    896.44991   -1553.5092    10.005939    1253.1868 
    9904   -240458.32    7415.2379   -233043.09    896.35589    -1591.768    10.005939     1253.183 
    9905   -240456.91    7414.5138   -233042.39    896.26835   -1630.5964    10.005939    1253.1846 
    9906   -240455.51    7413.8415   -233041.67    896.18709   -1669.2486    10.005939    1253.1918 
    9907   -240454.15    7413.2202   -233040.93    896.11199   -1708.2784    10.005939    1253.2045 
    9908   -240452.81    7412.6485   -233040.16    896.04289    -1747.647    10.005939    1253.2226 
    9909   -240451.49    7412.1244   -233039.36    895.97952   -1787.5225    10.005939    1253.2462 
    9910   -240450.19    7411.6464   -233038.54    895.92175   -1827.5659    10.005939    1253.2753 
    9911   -240448.91    7411.2129   -233037.69    895.86934   -1866.6741    10.005939    1253.3098 
    9912   -240447.64    7410.8226   -233036.82    895.82217   -1906.5751    10.005939    1253.3497 
    9913   -240446.39    7410.4757   -233035.92    895.78024   -1946.6822    10.005939     1253.395 
    9914   -240445.16      7410.17   -233034.99    895.74328    -1985.719    10.005939    1253.4456 
    9915   -240443.93    7409.9039   -233034.03    895.71111   -2025.2751    10.005939    1253.5016 
    9916   -240442.72    7409.6773   -233033.04    895.68373   -2065.2158    10.005939    1253.5628 
    9917   -240441.52    7409.4894   -233032.03    895.66101    -2105.102    10.005939    1253.6292 
    9918   -240440.32    7409.3397   -233030.98    895.64291   -2144.2513    10.005939    1253.7008 
    9919   -240439.14    7409.2271   -233029.91     895.6293   -2183.0838    10.005939    1253.7774 
    9920   -240437.96    7409.1509   -233028.81    895.62009   -2222.0878    10.005939     1253.859 
    9921    -240436.8    7409.1109   -233027.69    895.61525   -2261.2876    10.005939    1253.9456 
    9922   -240435.64     7409.106   -233026.53    895.61466   -2300.3792    10.005939    1254.0369 
    9923   -240434.48    7409.1354   -233025.35    895.61822   -2339.4565    10.005939    1254.1329 
    9924   -240433.33     7409.199   -233024.13     895.6259   -2379.3952    10.005939    1254.2336 
    9925   -240432.19    7409.2955   -233022.89    895.63758   -2418.3789    10.005939    1254.3387 
    9926   -240431.05    7409.4236   -233021.62    895.65305   -2456.9417    10.005939    1254.4482 
    9927   -240429.91    7409.5821   -233020.33    895.67221   -2494.7786    10.005939     1254.562 
    9928   -240428.77    7409.7695      -233019    895.69487   -2532.7143    10.005939    1254.6799 
    9929   -240427.64    7409.9848   -233017.65    895.72089   -2570.5928    10.005939    1254.8018 
    9930    -240426.5    7410.2267   -233016.27    895.75014   -2608.6283    10.005939    1254.9276 
    9931   -240425.36    7410.4932   -233014.87    895.78235   -2647.1859    10.005939    1255.0571 
    9932   -240424.22    7410.7826   -233013.43    895.81734   -2685.6297    10.005939    1255.1901 
    9933   -240423.07     7411.094   -233011.97    895.85497   -2722.4006    10.005939    1255.3265 
    9934   -240421.92    7411.4261   -233010.49    895.89511   -2759.6123    10.005939    1255.4661 
    9935   -240420.76    7411.7773   -233008.98    895.93757   -2797.0772    10.005939    1255.6088 
    9936   -240419.59    7412.1449   -233007.44    895.98201   -2833.8523    10.005939    1255.7544 
    9937   -240418.41    7412.5271   -233005.88    896.02821   -2870.6405    10.005939    1255.9027 
    9938   -240417.22    7412.9223    -233004.3    896.07598   -2907.8298    10.005939    1256.0535 
    9939   -240416.01    7413.3274   -233002.69    896.12495   -2944.4724    10.005939    1256.2067 
    9940   -240414.79      7413.74   -233001.05    896.17483   -2981.5067    10.005939     1256.362 
    9941   -240413.56    7414.1599    -232999.4    896.22558   -3018.4615    10.005939    1256.5193 
    9942    -240412.3    7414.5859   -232997.72    896.27708   -3054.4354    10.005939    1256.6783 
    9943   -240411.03    7415.0152   -232996.01    896.32897    -3090.092    10.005939    1256.8388 
    9944   -240409.73    7415.4457   -232994.29    896.38101   -3126.2981    10.005939    1257.0007 
    9945   -240408.42    7415.8764   -232992.54    896.43308   -3162.7643    10.005939    1257.1637 
    9946   -240407.08     7416.306   -232990.78    896.48501   -3198.4515    10.005939    1257.3276 
    9947   -240405.72    7416.7337   -232988.99    896.53671   -3233.7951    10.005939    1257.4921 
    9948   -240404.34    7417.1578   -232987.18    896.58796   -3268.6357    10.005939    1257.6572 
    9949   -240402.93    7417.5761   -232985.35    896.63853   -3303.3016    10.005939    1257.8225 
    9950   -240401.49    7417.9893    -232983.5    896.68848   -3338.7741    10.005939    1257.9879 
    9951   -240400.04    7418.3993   -232981.64    896.73804   -3373.4089    10.005939     1258.153 
    9952   -240398.56    7418.8058   -232979.75    896.78717   -3408.0595    10.005939    1258.3177 
    9953   -240397.06    7419.2071   -232977.85    896.83569   -3442.5795    10.005939    1258.4818 
    9954   -240395.53    7419.6036   -232975.93    896.88361   -3476.6286    10.005939     1258.645 
    9955   -240393.99    7419.9965   -232973.99    896.93111   -3510.8915    10.005939     1258.807 
    9956   -240392.42    7420.3872   -232972.03    896.97833   -3544.8162    10.005939    1258.9677 
    9957   -240390.84    7420.7767   -232970.06    897.02542   -3578.5602    10.005939    1259.1269 
    9958   -240389.24    7421.1667   -232968.08    897.07256   -3612.3336    10.005939    1259.2842 
    9959   -240387.63    7421.5591   -232966.07       897.12   -3646.2703    10.005939    1259.4396 
    9960   -240386.01     7421.956   -232964.05    897.16798   -3681.0618    10.005939    1259.5926 
    9961   -240384.38     7422.359   -232962.02     897.2167   -3716.1664    10.005939    1259.7432 
    9962   -240382.74    7422.7713   -232959.97    897.26653   -3751.1947    10.005939    1259.8911 
    9963   -240381.11     7423.196   -232957.91    897.31787    -3785.754    10.005939    1260.0361 
    9964   -240379.47    7423.6356   -232955.84      897.371   -3820.4299    10.005939    1260.1779 
    9965   -240377.84    7424.0931   -232953.75    897.42631   -3854.6112    10.005939    1260.3163 
    9966   -240376.22    7424.5705   -232951.65    897.48402   -3889.3827    10.005939    1260.4512 
    9967    -240374.6    7425.0699   -232949.53    897.54438   -3924.1584    10.005939    1260.5823 
    9968      -240373     7425.594   -232947.41    897.60774   -3958.8667    10.005939    1260.7093 
    9969   -240371.42    7426.1447   -232945.27     897.6743   -3994.3593    10.005939    1260.8322 
    9970   -240369.85    7426.7222   -232943.12    897.74411   -4030.3016    10.005939    1260.9506 
    9971   -240368.29     7427.328   -232940.97    897.81735   -4065.0435    10.005939    1261.0644 
    9972   -240366.76    7427.9652    -232938.8    897.89437   -4100.0061    10.005939    1261.1735 
    9973   -240365.26    7428.6346   -232936.62    897.97528   -4135.4124    10.005939    1261.2776 
    9974   -240363.77     7429.336   -232934.44    898.06007   -4170.7296    10.005939    1261.3766 
    9975   -240362.32    7430.0711   -232932.25    898.14893   -4205.6441    10.005939    1261.4703 
    9976   -240360.89    7430.8407   -232930.05    898.24196   -4241.8135    10.005939    1261.5586 
    9977   -240359.48    7431.6443   -232927.84    898.33909   -4278.5813    10.005939    1261.6413 
    9978   -240358.11    7432.4811   -232925.63    898.44025     -4314.76    10.005939    1261.7182 
    9979   -240356.76    7433.3509   -232923.41    898.54539   -4352.1093    10.005939    1261.7893 
    9980   -240355.44    7434.2523   -232921.19    898.65436    -4388.821    10.005939    1261.8544 
    9981   -240354.15    7435.1836   -232918.96    898.76693   -4425.4714    10.005939    1261.9134 
    9982   -240352.88    7436.1426   -232916.74    898.88285   -4462.0091    10.005939    1261.9662 
    9983   -240351.63    7437.1274    -232914.5     899.0019   -4499.0606    10.005939    1262.0126 
    9984   -240350.41    7438.1352   -232912.27    899.12373   -4536.1396    10.005939    1262.0526 
    9985    -240349.2    7439.1619   -232910.04    899.24783   -4573.1892    10.005939    1262.0861 
    9986   -240348.01    7440.2051   -232907.81    899.37393   -4610.5963    10.005939     1262.113 
    9987   -240346.84    7441.2622   -232905.58    899.50172   -4649.2023    10.005939    1262.1333 
    9988   -240345.68    7442.3289   -232903.35    899.63066   -4687.3475    10.005939    1262.1469 
    9989   -240344.52    7443.4006   -232901.12    899.76021   -4725.8888    10.005939    1262.1538 
    9990   -240343.37    7444.4729    -232898.9    899.88982   -4764.4168    10.005939    1262.1538 
    9991   -240342.22    7445.5422   -232896.68    900.01908   -4802.8912    10.005939    1262.1471 
    9992   -240341.07    7446.6039   -232894.46    900.14742   -4841.6746    10.005939    1262.1336 
    9993   -240339.91    7447.6545   -232892.26    900.27442   -4879.8505    10.005939    1262.1133 
    9994   -240338.74    7448.6903   -232890.05    900.39962   -4918.4788    10.005939    1262.0861 
    9995   -240337.57    7449.7064   -232887.86    900.52245   -4956.7296    10.005939    1262.0521 
    9996   -240336.38    7450.6984   -232885.68    900.64237   -4994.5214    10.005939    1262.0113 
    9997   -240335.16    7451.6629    -232883.5    900.75896   -5032.9977    10.005939    1261.9638 
    9998   -240333.93    7452.5972   -232881.33     900.8719   -5071.2953    10.005939    1261.9095 
    9999   -240332.68    7453.4974   -232879.18    900.98071   -5108.9265    10.005939    1261.8486 
   10000   -240331.39      7454.36   -232877.03    901.08498   -5146.8421    10.005939     1261.781 
Loop time of 2266.54 on 1 procs for 10000 steps with 64001 atoms

Performance: 0.381 ns/day, 62.959 hours/ns, 4.412 timesteps/s
90.3% CPU use with 1 MPI tasks x no OpenMP threads

MPI task timing breakdown:
Section |  min time  |  avg time  |  max time  |%varavg| %total
---------------------------------------------------------------
Pair    | 1492       | 1492       | 1492       |   0.0 | 65.83
Neigh   | 51.857     | 51.857     | 51.857     |   0.0 |  2.29
Comm    | 4.338      | 4.338      | 4.338      |   0.0 |  0.19
Output  | 4.1081     | 4.1081     | 4.1081     |   0.0 |  0.18
Modify  | 710.34     | 710.34     | 710.34     |   0.0 | 31.34
Other   |            | 3.894      |            |       |  0.17

Nlocal:    64001 ave 64001 max 64001 min
Histogram: 1 0 0 0 0 0 0 0 0 0
Nghost:    20103 ave 20103 max 20103 min
Histogram: 1 0 0 0 0 0 0 0 0 0
Neighs:    3.26599e+06 ave 3.26599e+06 max 3.26599e+06 min
Histogram: 1 0 0 0 0 0 0 0 0 0

Total # of neighbors = 3265987
Ave neighs/atom = 51.0302
Neighbor list builds = 355
Dangerous builds = 56
Total wall time: 0:37:46
