LAMMPS (16 Mar 2018)

# ---------- Initialize simulation ---------------------
units metal
atom_style atomic
dimension  3
boundary   p p p
read_data /home/sbatzner/ML-electron-density/EAM/lammps.data
  orthogonal box = (0 0 0) to (40.9 40.9 40.9)
  2 by 4 by 4 MPI processor grid
  reading atoms ...
  3999 atoms
pair_style eam
pair_coeff * * /home/sbatzner/lammps-16Mar18/potentials/Ag_u3.eam
Reading potential file /home/sbatzner/lammps-16Mar18/potentials/Ag_u3.eam with DATE: 2007-06-11
velocity  all create 900 87287 dist gaussian

# ---------- Describe computed properties------------------
compute msdall all msd
thermo_style custom step pe ke etotal temp press density c_msdall[4]
thermo 50

# ---------- Specify ensemble  ---------------------
#fix  1 all nve
fix  1 all nvt temp 900 900 0.05

# ---------- Dump for viz  ---------------------
region center_r sphere 20.45 20.45 20.45 20 side in
group center_g region center_r
1961 atoms in group center_g
dump d1 center_g atom 100 dump_bulkvac.atom

# --------- Compute RDF ---------------
compute rdfall all rdf 100 1 1
fix 2 all ave/time 1 250000 250000 c_rdfall[*] file /home/sbatzner/ML-electron-density/EAM/lammps.rdf mode vector

# --------- Run -------------
timestep 0.001
run 1000000
Neighbor list info ...
  update every 1 steps, delay 10 steps, check yes
  max neighbors/atom: 2000, page size: 100000
  master list distance cutoff = 7.55
  ghost atom cutoff = 7.55
  binsize = 3.775, bins = 11 11 11
  2 neighbor lists, perpetual/occasional/extra = 1 1 0
  (1) pair eam, perpetual
      attributes: half, newton on
      pair build: half/bin/atomonly/newton
      stencil: half/bin/3d/newton
      bin: standard
  (2) compute rdf, occasional, copy from (1)
      attributes: half, newton on
      pair build: copy
      stencil: none
      bin: none
Per MPI rank memory allocation (min/avg/max) = 4.352 | 4.479 | 4.738 Mbytes
Step PotEng KinEng TotEng Temp Press Density c_msdall[4] 
       0   -11396.184    465.10385    -10931.08          900    7215.0799    10.469628            0 
      50   -11047.612    136.35745   -10911.254    263.85872    35698.776    10.469628   0.03405235 
     100   -11123.288    251.40655   -10871.881    486.48467    28974.106    10.469628  0.050346241 
     150   -11080.755    273.78762   -10806.967    529.79319    34445.464    10.469628  0.053194563 
     200   -11108.258    376.92149   -10731.336    729.36257    32698.364    10.469628  0.053674305 
     250   -10992.386    336.60071   -10655.786    651.33978    43322.661    10.469628  0.065649413 
     300   -11012.046    435.48345   -10576.562      842.683    42327.122    10.469628  0.071406464 
     350   -10926.773    417.30573   -10509.468    807.50817    50580.673    10.469628  0.080937649 
     400   -10933.918    487.18367   -10446.734    942.72559    50519.786    10.469628  0.084697114 
     450   -10902.666     475.8326   -10426.834    920.76068    53440.859    10.469628  0.089632062 
     500   -10909.926    472.45306   -10437.473     914.2211     52345.49    10.469628   0.09219467 
     550   -10923.906    463.92107   -10459.985    897.71124    51136.565    10.469628  0.091149868 
     600   -10937.627    460.71081   -10476.917    891.49924    49928.332    10.469628  0.087632908 
     650   -10940.701     456.5106   -10484.191    883.37161    49512.024    10.469628   0.08420413 
     700   -10941.394    464.08503   -10477.309    898.02853    49592.186    10.469628  0.081081345 
     750   -10937.653    468.17668   -10469.476    905.94607    49999.093    10.469628  0.079918807 
     800   -10928.926    463.64949   -10465.276    897.18572    50625.878    10.469628  0.080084724 
     850   -10935.521    474.22684   -10461.294    917.65344    50253.598    10.469628  0.079539655 
     900   -10924.778    455.97789     -10468.8     882.3408    50949.942    10.469628  0.080353523 
     950   -10935.739    469.08396   -10466.655     907.7017     50100.59    10.469628  0.078756766 
    1000   -10928.499     461.9241   -10466.575    893.84701    50747.648    10.469628  0.077273768 
    1050   -10937.052    470.91377   -10466.138    911.24249     49888.56    10.469628  0.075059872 
    1100   -10934.923    464.48441   -10470.438    898.80134    50233.184    10.469628  0.073108019 
    1150    -10945.19    467.51111   -10477.679    904.65817    49450.379    10.469628  0.071812791 
    1200   -10950.141    460.87261   -10489.268    891.81232    48748.506    10.469628  0.073363778 
    1250   -10945.103    452.55497   -10492.548    875.71725    49022.062    10.469628  0.077247006 
    1300   -10930.685    457.47599   -10473.209    885.23969    50482.557    10.469628  0.080759106 
    1350   -10926.155    478.86707   -10447.288    926.63254    51287.893    10.469628  0.082837957 
    1400    -10922.35    476.73141   -10445.619    922.49993    51587.634    10.469628  0.085775326 
    1450   -10919.369    457.60897    -10461.76    885.49702     51400.68    10.469628  0.088087882 
    1500   -10931.163    463.03874   -10468.124     896.0039    50566.527    10.469628  0.086822754 
    1550    -10939.44    470.00648   -10469.434    909.48683    49814.089    10.469628  0.084253765 
    1600   -10935.701      458.472   -10477.229    887.16702    49996.833    10.469628  0.083028079 
    1650   -10938.335    462.98997   -10475.345    895.90953    49886.779    10.469628  0.080980951 
    1700   -10941.031     473.2474   -10467.784    915.75818    49833.766    10.469628  0.078898795 
    1750   -10933.707    461.73424   -10471.973    893.47962    50331.894    10.469628  0.079370169 
    1800   -10930.658    458.61065   -10472.047    887.43532    50389.666    10.469628  0.079525713 
    1850   -10937.498    475.80871   -10461.689    920.71446    50169.713    10.469628  0.077610677 
    1900   -10931.165    465.16907   -10465.996    900.12619    50432.137    10.469628  0.077469061 
    1950   -10930.615     458.0185   -10472.596    886.28948    50522.323    10.469628  0.077259375 
    2000   -10933.984    466.24735   -10467.737    902.21273    50280.067    10.469628  0.075348156 
    2050   -10939.466    472.54506   -10466.921    914.39913    49933.737    10.469628  0.074092939 
    2100   -10936.009     459.6286   -10476.381     889.4051    50117.295    10.469628  0.074894405 
    2150   -10941.775    465.33176   -10476.443    900.44101    49535.154    10.469628  0.075073155 
    2200   -10942.355    465.90285   -10476.452    901.54609    49512.569    10.469628  0.076747156 
    2250   -10932.816     457.0186   -10475.797    884.35462    50299.156    10.469628  0.079715096 
    2300   -10928.106    465.09657   -10463.009    899.98591     50830.46    10.469628  0.081133885 
    2350   -10924.103    472.33377   -10451.769    913.99027    51324.648    10.469628  0.081539574 
    2400    -10927.36    473.74232   -10453.618    916.71589    51064.125    10.469628  0.081127437 
    2450    -10930.37    459.93714   -10470.433    890.00215    50632.634    10.469628  0.081159426 
    2500   -10937.172    459.45952   -10477.712    889.07791    49858.209    10.469628  0.079863364 
    2550   -10938.975    464.41871   -10474.556    898.67421    49780.544    10.469628  0.078170774 
    2600    -10934.13    465.66079   -10468.469     901.0777    50307.686    10.469628  0.077034018 
    2650   -10930.357    465.16262   -10465.194    900.11372    50807.496    10.469628  0.076430465 
    2700   -10938.824    473.39609   -10465.428     916.0459    50082.318    10.469628  0.075674367 
    2750   -10934.274    460.23492   -10474.039    890.57837    50282.693    10.469628  0.075996995 
    2800   -10936.163    460.40206   -10475.761    890.90179    50024.781    10.469628  0.075748433 
    2850   -10935.365    467.31702   -10468.048    904.28259    50241.088    10.469628  0.074882446 
    2900    -10936.02    470.38682   -10465.634    910.22281    50190.097    10.469628  0.075140843 
    2950   -10937.257    466.54641   -10470.711    902.79141    50052.336    10.469628  0.076614495 
    3000   -10931.369    454.96202   -10476.407    880.37503    50446.065    10.469628    0.0791008 
    3050   -10933.853    466.13223   -10467.721    901.98997    50373.334    10.469628  0.080223899 
    3100   -10927.386    468.45435   -10458.932    906.48338    51005.783    10.469628   0.08131646 
    3150   -10929.439    471.60543   -10457.834    912.58089    50872.716    10.469628   0.08216073 
    3200   -10926.752    460.61784   -10466.134    891.31934    50690.366    10.469628  0.082930581 
    3250   -10938.164     465.8021   -10472.362    901.35115    49932.586    10.469628  0.082346702 
    3300   -10937.156    461.37117   -10475.785    892.77706     50076.69    10.469628  0.081918919 
    3350   -10934.463    462.47841   -10471.984    894.91963    50247.452    10.469628  0.081398618 
    3400   -10928.463    464.39176   -10464.071    898.62206    50870.978    10.469628  0.080682411 
    3450   -10935.114    480.04157   -10455.073    928.90525    50418.134    10.469628  0.078478192 
    3500   -10924.494    458.56801   -10465.926    887.35281     51195.56    10.469628  0.077956411 
    3550   -10932.781    464.26347   -10468.518    898.37382    50476.776    10.469628  0.075669077 
    3600   -10937.018    469.72978   -10467.288     908.9514    50117.898    10.469628  0.072690134 
    3650     -10941.5    465.41252   -10476.087    900.59729    49604.723    10.469628  0.071611715 
    3700   -10939.793    455.57782   -10484.216    881.56663    49684.373    10.469628  0.072101993 
    3750   -10938.071    459.87501   -10478.196    889.88192    49940.044    10.469628  0.072884096 
    3800   -10927.618    463.99114   -10463.627    897.84684     50962.53    10.469628  0.073381719 
    3850   -10932.289    473.81715   -10458.472    916.86068    50538.469    10.469628  0.073275041 
    3900   -10930.427    462.62677     -10467.8    895.20671    50617.483    10.469628  0.074215884 
    3950    -10938.94     465.1676   -10473.772    900.12336    49795.154    10.469628  0.074477557 
    4000   -10938.297    459.75123   -10478.546    889.64239    49843.314    10.469628  0.075295749 
    4050   -10946.047    461.71521   -10484.331    893.44279    49129.481    10.469628  0.076292521 
    4100   -10938.355    451.47398   -10486.881    873.62548    49770.686    10.469628   0.07847743 
    4150   -10936.207    464.81753    -10471.39    899.44595    50112.855    10.469628  0.079920117 
    4200   -10931.805    467.44011   -10464.365    904.52078    50467.941    10.469628  0.081273284 
    4250   -10931.664     467.1019   -10464.562    903.86632    50474.883    10.469628  0.082751966 
    4300   -10920.737    455.85748   -10464.879    882.10779    51389.088    10.469628  0.083139388 
    4350   -10930.238    478.42563   -10451.812    925.77832    50832.061    10.469628  0.080528903 
    4400   -10926.779    468.49781   -10458.281    906.56748    50953.461    10.469628  0.078922965 
    4450   -10931.981    466.18486   -10465.796     902.0918    50411.493    10.469628  0.076717715 
    4500   -10939.061    470.22636   -10468.834    909.91231    50009.164    10.469628  0.074154651 
    4550   -10938.339    461.86178   -10476.477    893.72642    49919.718    10.469628  0.073287338 
    4600   -10936.939      459.363   -10477.576    888.89114    49967.083    10.469628  0.073017357 
    4650    -10939.11    469.69272   -10469.418     908.8797    49873.908    10.469628  0.072190243 
    4700   -10932.802    469.92844   -10462.873    909.33583    50599.013    10.469628  0.072229345 
    4750   -10928.643    479.17796   -10449.465    927.23412    51173.473    10.469628  0.073861426 
    4800   -10916.514    460.47608   -10456.038    891.04502    51903.277    10.469628  0.076697331 
    4850   -10928.159    468.28847   -10459.871    906.16239    51016.522    10.469628  0.075553491 
    4900   -10943.074    469.30902   -10473.765    908.13721    49713.769    10.469628  0.073389137 
    4950   -10942.064     458.1329   -10483.931    886.51085    49474.431    10.469628  0.073329605 
    5000   -10939.942    461.82409   -10478.118    893.65348    49794.756    10.469628  0.073498247 
    5050   -10942.001    472.39347   -10469.608    914.10578    49852.517    10.469628  0.073853823 
    5100    -10928.44    457.07474   -10471.366    884.46325    50685.272    10.469628  0.076062213 
    5150   -10933.477    473.45873   -10460.019    916.16711    50654.428    10.469628  0.076540074 
    5200    -10920.37     468.8586   -10451.512    907.26563    51705.005    10.469628  0.077766382 
    5250     -10924.2    468.13577   -10456.064    905.86691    51349.916    10.469628  0.078077052 
    5300   -10931.698    469.18552   -10462.512    907.89824    50597.286    10.469628  0.077076215 
    5350   -10932.843    465.24038   -10467.603    900.26418    50302.722    10.469628  0.076519425 
    5400   -10938.928    468.80692   -10470.121    907.16563    49803.317    10.469628  0.076145086 
    5450   -10936.932    460.54208    -10476.39    891.17273    50021.131    10.469628  0.076605007 
    5500   -10932.415    453.22644   -10479.188     877.0166    50162.318    10.469628  0.077202311 
    5550   -10935.745    473.48278   -10462.263    916.21367    50280.979    10.469628   0.07619494 
    5600   -10936.863    474.08158   -10462.782    917.37236    50215.844    10.469628  0.076167722 
    5650   -10927.877    454.80744    -10473.07     880.0759    50718.771    10.469628  0.077695065 
    5700   -10936.363    467.72686   -10468.636    905.07566    50317.285    10.469628  0.077100219 
    5750   -10935.658    468.04816    -10467.61    905.69739    50203.176    10.469628  0.077132007 
    5800   -10927.771    453.23397   -10474.537    877.03116    50793.655    10.469628  0.077648794 
    5850   -10947.717    470.11161   -10477.605    909.69027    49252.323    10.469628  0.075810996 
    5900   -10941.477    455.76253   -10485.714    881.92405    49566.134    10.469628   0.07661652 
    5950   -10944.421    463.20316   -10481.217    896.32206    49260.971    10.469628  0.077725813 
    6000   -10925.434    457.57697   -10467.857    885.43509      50869.6    10.469628  0.078807032 
    6050   -10939.052    476.98224    -10462.07     922.9853    49997.081    10.469628  0.077953471 
    6100   -10926.029    456.52054   -10469.509    883.39085    50941.366    10.469628  0.078540219 
    6150   -10936.966    470.39765   -10466.569    910.24377    50132.654    10.469628  0.076992932 
    6200   -10928.985    460.81478   -10468.171    891.70041    50707.673    10.469628  0.076267564 
    6250   -10938.384    463.93319   -10474.451    897.73471    49893.134    10.469628  0.074658168 
    6300   -10944.689    466.07109   -10478.618    901.87164    49527.942    10.469628  0.072826667 
    6350   -10945.788     461.1425   -10484.645    892.33458    49140.998    10.469628  0.073206902 
    6400   -10931.429    448.52127   -10482.907    867.91184    50273.798    10.469628  0.074485863 
    6450   -10945.584    475.40188   -10470.182    919.92722     49392.21    10.469628  0.073411711 
    6500    -10936.06    462.53396   -10473.526    895.02712    50059.621    10.469628  0.074713475 
    6550   -10939.129    462.85071   -10476.279    895.64006    49845.927    10.469628  0.076453435 
    6600    -10937.71    462.31593   -10475.394    894.60522    49925.302    10.469628  0.078448269 
    6650   -10923.744    461.37589   -10462.369    892.78619    51040.748    10.469628  0.080043107 
    6700   -10932.333    477.05793   -10455.275    923.13176    50679.701    10.469628  0.080220763 
    6750   -10927.988    464.78026   -10463.208    899.37383    50792.817    10.469628  0.081426106 
    6800    -10930.19    463.21545   -10466.974    896.34584    50559.198    10.469628  0.082123967 
    6850    -10932.56    466.16058     -10466.4    902.04481    50306.272    10.469628  0.081754626 
    6900   -10933.033    466.92391   -10466.109    903.52191    50340.262    10.469628  0.080856509 
    6950   -10932.967    460.11216   -10472.855    890.34081    50247.552    10.469628  0.080010181 
    7000   -10941.896    464.74268   -10477.153    899.30111    49601.184    10.469628  0.078358125 
    7050   -10940.903     459.3889   -10481.514    888.94126    49532.664    10.469628  0.078070514 
    7100   -10936.611    459.12752   -10477.483    888.43548     50116.44    10.469628  0.077985056 
    7150   -10937.491    472.85842   -10464.633    915.00549    50203.878    10.469628   0.07741418 
    7200   -10926.319    459.67021   -10466.649    889.48561    50805.291    10.469628  0.078352869 
    7250   -10933.528     470.8426   -10462.685    911.10478    50389.061    10.469628  0.077252216 
    7300   -10927.368    465.34928   -10462.018    900.47492    50930.228    10.469628   0.07645005 
    7350    -10933.71    465.19025    -10468.52    900.16718    50358.969    10.469628  0.074759492 
    7400   -10934.346      456.409   -10477.937    883.17501    50058.576    10.469628  0.073105314 
    7450   -10946.492    469.47636   -10477.016    908.46103    49111.342    10.469628  0.070881598 
    7500   -10944.468    464.21634   -10480.252    898.28261    49406.035    10.469628   0.07136661 
    7550   -10945.634    455.13842   -10490.496    880.71637    49012.988    10.469628  0.074130166 
    7600   -10936.884    457.52287   -10479.361    885.33041    49798.467    10.469628  0.076598143 
    7650   -10941.791    471.56372   -10470.227    912.50018    49573.666    10.469628  0.078936262 
    7700   -10927.181    454.98509   -10472.196    880.41968    50680.071    10.469628  0.082862187 
    7750   -10930.089    469.67728   -10460.411    908.84981    50671.885    10.469628  0.084161311 
    7800   -10929.147    471.85945   -10457.288    913.07244    50792.293    10.469628  0.084839948 
    7850   -10925.264    458.93615   -10466.328    888.06517    51051.857    10.469628  0.086113983 
    7900   -10929.367    463.63708    -10465.73    897.16171    50651.306    10.469628  0.085279054 
    7950   -10930.408    468.78455   -10461.623    907.12234    50562.751    10.469628  0.083207286 
    8000   -10934.444     462.2672   -10472.177    894.51094    50218.042    10.469628  0.081508173 
    8050   -10942.227    456.28229   -10485.945    882.92982    49360.152    10.469628   0.07956912 
    8100   -10941.261    463.80924   -10477.452    897.49486    49669.993    10.469628  0.077391299 
    8150   -10940.529    471.51837    -10469.01    912.41242    49736.375    10.469628   0.07631298 
    8200   -10931.628    460.45682   -10471.171    891.00775    50489.376    10.469628  0.077289508 
    8250   -10937.399    468.85634   -10468.543    907.26125     49954.99    10.469628  0.077405752 
    8300   -10931.029    468.91086   -10462.118    907.36676    50465.485    10.469628  0.078338638 
    8350   -10928.103     465.9474   -10462.156    901.63231    50689.455    10.469628  0.079937165 
    8400   -10925.901    460.78587   -10465.115    891.64448    50943.186    10.469628  0.080257783 
    8450   -10934.846    470.68682   -10464.159    910.80333    50406.269    10.469628  0.078956963 
    8500   -10924.414    452.31551   -10472.099    875.25389    51084.003    10.469628  0.078735566 
    8550   -10949.602    480.84226   -10468.759    930.45462    49124.047    10.469628  0.076285246 
    8600   -10936.603    453.14893   -10483.454    876.86661    49928.024    10.469628   0.07821644 
    8650   -10939.777    461.38937   -10478.388    892.81229    49644.293    10.469628  0.079319408 
    8700   -10934.315    462.75523    -10471.56    895.45529    50216.061    10.469628  0.079820809 
    8750     -10933.6    467.57183   -10466.028    904.77566    50284.095    10.469628  0.080337147 
    8800   -10925.889    466.92299   -10458.966    903.52012    51099.904    10.469628  0.080128516 
    8850   -10926.414    474.65401    -10451.76    918.48005    51257.639    10.469628  0.079467306 
    8900   -10925.123    460.91853   -10464.204    891.90118    51052.326    10.469628  0.078921532 
    8950   -10938.586     464.8527   -10473.733    899.51401    49817.399    10.469628  0.076193604 
    9000   -10941.331    462.71909   -10478.612    895.38536    49705.038    10.469628  0.074061267 
    9050   -10944.216    465.71903   -10478.497    901.19041    49292.166    10.469628  0.072738135 
    9100   -10935.529    466.26294   -10469.266    902.24288     50220.72    10.469628  0.073081074 
    9150   -10930.685    471.99668   -10458.688    913.33798    50823.365    10.469628  0.074411582 
    9200   -10923.295    465.69942   -10457.595    901.15245    51410.707    10.469628  0.075343535 
    9250   -10930.705    466.68537    -10464.02    903.06031    50605.011    10.469628  0.074732472 
    9300   -10940.274    462.96469   -10477.309     895.8606    49854.012    10.469628  0.073636764 
    9350   -10947.172    468.03473   -10479.137     905.6714    49198.333    10.469628   0.07283865 
    9400   -10937.937    456.14626   -10481.791     882.6666    49932.524    10.469628   0.07440963 
    9450   -10933.884    467.32871   -10466.556    904.30522    50311.079    10.469628  0.075549806 
    9500   -10931.111    469.23689   -10461.874    907.99763    50677.406    10.469628  0.076655217 
    9550   -10932.895    465.03792   -10467.857    899.87242    50393.046    10.469628  0.078340503 
    9600   -10930.167    458.66133   -10471.505    887.53339    50444.948    10.469628  0.079064009 
    9650   -10938.408    473.88798    -10464.52    916.99773    49991.712    10.469628  0.077912562 
    9700   -10935.209    469.25581   -10465.953    908.03424    50330.246    10.469628  0.078340539 
    9750   -10933.066     455.3044   -10477.761    881.03755    50309.372    10.469628    0.0791188 
    9800   -10940.263    464.53567   -10475.727    898.90054    49720.706    10.469628   0.07875219 
    9850   -10930.674    465.00689   -10465.667    899.81237    50512.909    10.469628  0.079794634 
    9900   -10922.745    470.39447   -10452.351    910.23761    51473.861    10.469628  0.080824571 
    9950   -10920.813    468.29352   -10452.519    906.17217     51482.68    10.469628  0.080505004 
   10000    -10928.16    469.10208   -10459.058    907.73677      50875.5    10.469628  0.078006258 
   10050    -10942.55    468.01542   -10474.535    905.63403    49593.701    10.469628  0.075748552 
   10100   -10937.845    460.44911   -10477.395    890.99283    50019.681    10.469628  0.075625988 
   10150   -10940.347    468.31932   -10472.028    906.22209    49669.016    10.469628  0.075785927 
   10200   -10929.029    462.68602   -10466.343    895.32137    50617.476    10.469628  0.076938999 
   10250   -10928.459    471.17421   -10457.285    911.74645    50844.059    10.469628  0.077341948 
   10300    -10926.87    472.14456   -10454.725    913.62414    51259.946    10.469628  0.077430771 
   10350   -10929.284    460.43269   -10468.851    890.96106    50531.168    10.469628  0.077510745 
   10400   -10938.606     463.3048   -10475.302    896.51874    49929.298    10.469628  0.076591009 
   10450   -10944.182    466.75007   -10477.432    903.18552    49399.484    10.469628  0.076395337 
   10500   -10932.388    454.02096   -10478.367    878.55403    50281.751    10.469628   0.07737854 
   10550   -10940.646    475.99237   -10464.653    921.06985    49918.158    10.469628  0.077223817 
   10600   -10928.067    461.55116   -10466.516    893.12536    50756.269    10.469628  0.079366546 
   10650   -10930.334     465.0718   -10465.262    899.93798    50710.391    10.469628  0.080268001 
   10700   -10928.185    470.63769   -10457.548    910.70826    50905.344    10.469628  0.080073645 
   10750   -10922.607    472.97137   -10449.635    915.22404    51544.155    10.469628  0.079821323 
   10800   -10930.148    470.77007   -10459.378    910.96442    50752.834    10.469628  0.079019133 
   10850   -10936.372    464.46729   -10471.905    898.76821    50061.032    10.469628  0.077902666 
   10900   -10934.048    460.31938   -10473.729    890.74179    50178.505    10.469628   0.07733356 
   10950   -10937.433    469.77844   -10467.655    909.04556    50067.021    10.469628  0.075992029 
   11000   -10931.019    466.23115   -10464.788    902.18137    50635.828    10.469628   0.07537906 
   11050   -10935.973    468.05344   -10467.919     905.7076    50132.658    10.469628  0.074943721 
   11100   -10928.204    451.69869   -10476.505    874.06031    50561.629    10.469628   0.07425121 
   11150   -10948.964    477.89813   -10471.066    924.75758    49216.733    10.469628  0.071727963 
   11200   -10934.011    452.84722   -10481.164    876.28278    50145.022    10.469628  0.073286598 
   11250   -10940.477    463.88462   -10476.592    897.64073    49564.174    10.469628  0.073594439 
   11300    -10936.53    473.29706   -10463.233    915.85428    50146.512    10.469628  0.074584046 
   11350   -10929.838    465.02501   -10464.813    899.84744    50574.465    10.469628  0.076962133 
   11400   -10933.305    466.74234   -10466.563    903.17056    50301.604    10.469628  0.078421113 
   11450   -10935.323     461.9492   -10473.374    893.89558    50130.845    10.469628  0.080248588 
   11500   -10934.108    456.50587   -10477.602    883.36245    50024.424    10.469628  0.081467958 
   11550    -10932.34    472.69027    -10459.65    914.68011    50501.324    10.469628  0.081152883 
   11600   -10929.982    471.78445   -10458.198     912.9273    50855.203    10.469628  0.081718752 
   11650   -10922.696      456.824   -10465.872    883.97805    51221.297    10.469628  0.082417112 
   11700   -10933.631    469.95953   -10463.671    909.39599    50470.747    10.469628  0.080394555 
   11750   -10928.037    470.47175   -10457.565    910.38715    50936.204    10.469628  0.078152666 
   11800   -10927.776     472.8362    -10454.94    914.96249    51039.002    10.469628  0.075912558 
   11850   -10932.265     465.0611   -10467.204    899.91728    50535.257    10.469628  0.073469953 
   11900   -10947.008    470.42801    -10476.58    910.30253    49387.452    10.469628  0.070600115 
   11950   -10942.284    457.64726   -10484.637     885.5711    49588.528    10.469628  0.070808792 
   12000   -10939.366     459.4272   -10479.939    889.01539    49857.689    10.469628  0.071966575 
   12050   -10936.026    465.03492   -10470.991    899.86661    50232.196    10.469628  0.072768592 
   12100   -10937.684    469.35898   -10468.325    908.23389    50166.902    10.469628   0.07366004 
   12150   -10936.161    464.04653   -10472.114    897.95403    50212.262    10.469628  0.075829065 
   12200   -10930.905    455.60038   -10475.304    881.61029    50311.476    10.469628  0.078348816 
   12250   -10935.139    474.70837   -10460.431    918.58524    50379.742    10.469628  0.079289594 
   12300   -10920.607    463.04665    -10457.56     896.0192    51703.323    10.469628  0.081315514 
   12350   -10927.307    471.16483   -10456.142    911.72829    51103.519    10.469628  0.081131941 
   12400   -10929.053    463.44433   -10465.608    896.78874    50755.615    10.469628  0.080287741 
   12450   -10934.194    459.58335   -10474.611    889.31753    50243.928    10.469628  0.078365329 
   12500   -10947.235    472.56256   -10474.672    914.43298    49285.541    10.469628  0.075925509 
   12550   -10940.058    454.43748    -10485.62    879.36001    49617.494    10.469628  0.077120785 
   12600   -10933.496    454.25851   -10479.238     879.0137    50203.979    10.469628  0.077643611 
   12650   -10934.027    462.06696    -10471.96    894.12346    50315.641    10.469628  0.076251081 
   12700   -10938.079    470.80901    -10467.27    911.03978    50109.514    10.469628  0.075221297 
   12750   -10933.909    465.95417   -10467.954     901.6454    50354.012    10.469628  0.075326705 
   12800   -10935.552    463.28158    -10472.27     896.4738    50111.296    10.469628  0.075666637 
   12850   -10935.924    458.32819   -10477.596    886.88874     50080.35    10.469628  0.075919083 
   12900   -10939.768    469.69319   -10470.075    908.88061     49836.55    10.469628  0.075571499 
   12950   -10926.283    466.22211    -10460.06    902.16389    51028.977    10.469628  0.076667177 
   13000   -10930.623    477.14624   -10453.477    923.30264    50797.779    10.469628  0.077081408 
   13050   -10927.117    457.56571   -10469.551     885.4133    50856.203    10.469628   0.07827334 
   13100    -10935.94    464.23694   -10471.704    898.32248    50215.306    10.469628  0.077464548 
   13150   -10939.917    468.10237   -10471.815    905.80228    49892.784    10.469628  0.076813707 
   13200   -10937.865    459.44359   -10478.422    889.04709    49881.943    10.469628  0.077823833 
   13250   -10937.841    459.36122    -10478.48    888.88771     49873.12    10.469628   0.07868586 
   13300   -10929.641    466.95142    -10462.69    903.57514    50785.749    10.469628  0.079036595 
   13350   -10928.737    470.88557   -10457.851    911.18792    50887.467    10.469628  0.078888266 
   13400   -10931.086     466.4534   -10464.632    902.61145      50744.1    10.469628  0.078507798 
   13450   -10927.636    454.71525   -10472.921    879.89751    50809.516    10.469628  0.077555068 
   13500   -10941.299    474.59589   -10466.703    918.36758    49815.952    10.469628  0.074565268 
   13550    -10934.81    472.50222   -10462.308    914.31622    50516.655    10.469628  0.074296703 
   13600   -10932.122    460.13718   -10471.985    890.38923    50509.041    10.469628  0.075053544 
   13650   -10938.226    461.14571    -10477.08    892.34078    49933.222    10.469628  0.074665951 
   13700    -10940.24    461.38673   -10478.854    892.80717    49828.534    10.469628  0.074548899 
   13750     -10937.7    470.70784   -10466.992    910.84401    50147.982    10.469628  0.074700574 
   13800   -10926.649    466.19923   -10460.449    902.11961    51007.413    10.469628  0.076536767 
   13850   -10924.026    467.46805   -10456.558    904.57483    51279.606    10.469628  0.077275337 
   13900   -10922.056     476.4434   -10445.613    921.94261    51651.778    10.469628  0.076244414 
   13950   -10926.703    474.32804   -10452.375    917.84928    51206.956    10.469628   0.07520561 
   14000   -10936.634    470.95727   -10465.677    911.32667    50187.737    10.469628  0.074244232 
   14050   -10936.623    460.19164   -10476.432    890.49461     49944.17    10.469628  0.074366479 
   14100   -10937.727    458.83081   -10478.897    887.86133    50022.186    10.469628  0.075012554 
   14150   -10937.033    469.01468   -10468.018    907.56765    50146.323    10.469628  0.075142496 
   14200    -10929.04     465.6573   -10463.383    901.07094    50820.662    10.469628  0.076066494 
   14250   -10934.333    469.14636   -10465.187    907.82246    50394.477    10.469628  0.077036267 
   14300   -10930.124    460.84869   -10469.275    891.76604    50612.917    10.469628   0.07835504 
   14350   -10933.627    467.53109   -10466.096    904.69683    50393.421    10.469628   0.07801294 
   14400   -10930.191    462.31167   -10467.879    894.59699    50679.775    10.469628  0.077511768 
   14450    -10935.22    465.84996    -10469.37    901.44376    50411.871    10.469628  0.077104394 
   14500   -10933.939    464.65698   -10469.282    899.13528    50342.615    10.469628  0.076561755 
   14550    -10933.76    471.49696   -10462.263      912.371    50359.511    10.469628  0.075868758 
   14600   -10928.897    466.73989   -10462.157    903.16581    50862.009    10.469628  0.076370721 
   14650   -10932.595    465.14321   -10467.452    900.07616     50402.92    10.469628   0.07592555 
   14700   -10936.721    460.47599   -10476.245    891.04484    49975.774    10.469628  0.074972914 
   14750   -10941.532     459.4555   -10482.076    889.07015    49484.093    10.469628  0.074196143 
   14800   -10936.631    464.20693   -10472.424     898.2644    50117.086    10.469628  0.073468636 
   14850   -10939.203    475.54592   -10463.657    920.20593     49912.14    10.469628  0.073982627 
   14900   -10923.449    453.89554   -10469.554    878.31134    51067.998    10.469628  0.076870419 
   14950    -10930.57    469.14952   -10461.421    907.82857    50541.665    10.469628   0.07663557 
   15000   -10932.271    471.61535   -10460.655    912.60009     50694.42    10.469628  0.076096559 
   15050   -10933.207    465.09784   -10468.109    899.98837    50518.565    10.469628  0.076390176 
   15100   -10933.577     463.4894   -10470.088    896.87596    50349.194    10.469628  0.076886972 
   15150   -10936.844    468.94893   -10467.895    907.44043    50052.755    10.469628  0.077181527 
   15200   -10927.995    458.73683   -10469.258    887.67948    50687.864    10.469628  0.078372649 
   15250   -10934.307    469.26047   -10465.046    908.04327    50236.047    10.469628  0.078372827 
   15300   -10925.306    468.97813   -10456.328    907.49693    51069.772    10.469628  0.078259814 
   15350   -10931.595    478.30584   -10453.289    925.54652    50642.707    10.469628  0.077379396 
   15400   -10930.191    460.16227   -10470.029    890.43779    50388.386    10.469628  0.077145343 
   15450   -10939.434    465.19068   -10474.243    900.16801    49812.592    10.469628  0.076243478 
   15500   -10931.276    457.62062   -10473.656    885.51955    50536.841    10.469628  0.076033116 
   15550   -10940.641    477.49626   -10463.145    923.97995    50034.278    10.469628  0.075483573 
   15600   -10926.936    462.86419   -10464.072    895.66613    50694.798    10.469628  0.076920587 
   15650   -10931.087    465.84272   -10465.244    901.42974    50468.492    10.469628  0.076973593 
   15700   -10937.582    465.76903   -10471.813    901.28714    49894.825    10.469628  0.076569993 
   15750   -10937.021    459.54628   -10477.474     889.2458    49928.652    10.469628  0.076147747 
   15800   -10938.313    462.54617   -10475.767    895.05075    49852.356    10.469628  0.075954735 
   15850   -10932.768    468.75513   -10464.013    907.06542     50398.45    10.469628  0.076286655 
   15900   -10927.701    469.97805   -10457.723    909.43183    50832.823    10.469628  0.076800239 
   15950   -10933.953    470.90795   -10463.045    911.23122    50426.836    10.469628  0.077119601 
   16000   -10928.664    456.38356    -10472.28    883.12578    50546.542    10.469628  0.077694193 
   16050    -10937.81    466.43088    -10471.38    902.56787    49930.712    10.469628   0.07670301 
   16100   -10939.845    468.49886   -10471.346    906.56951    49923.135    10.469628  0.076222628 
   16150   -10925.724    453.14817   -10472.576    876.86514     50726.41    10.469628  0.076556767 
   16200   -10937.847    479.06167   -10458.785    927.00909     50329.93    10.469628  0.074791906 
   16250   -10933.211    471.03823   -10462.172    911.48333    50633.381    10.469628    0.0751886 
   16300   -10925.119     455.9154   -10469.203    882.21987    50979.245    10.469628  0.076323702 
   16350   -10937.758    472.10918   -10465.649    913.55566    50165.584    10.469628  0.075121908 
   16400   -10931.203    462.13472   -10469.069    894.25457    50524.694    10.469628  0.074677817 
   16450   -10939.725    465.09289   -10474.633    899.97879     49856.86    10.469628  0.074182876 
   16500    -10937.06    452.86104   -10484.199    876.30952     49920.56    10.469628  0.073734346 
   16550    -10941.79    470.12983    -10471.66    909.72552    49732.121    10.469628  0.072088029 
   16600   -10931.689    468.11583   -10463.573    905.82834    50639.054    10.469628  0.073015095 
   16650   -10933.167    468.38871   -10464.778    906.35637    50375.588    10.469628  0.074449928 
   16700   -10933.373    462.77675   -10470.596    895.49693    50396.099    10.469628  0.075949614 
   16750   -10932.587      447.115   -10485.472    865.19064    50137.817    10.469628  0.077038549 
   16800    -10950.05    465.11066    -10484.94    900.01318    48761.369    10.469628  0.075439474 
   16850   -10940.275    464.43767   -10475.837    898.71091    49694.695    10.469628  0.075616789 
   16900   -10928.074    459.62951   -10468.444    889.40686    50797.836    10.469628  0.077213793 
   16950   -10926.738    464.74301   -10461.995    899.30174    50996.006    10.469628  0.076743138 
   17000   -10938.956    474.67082   -10464.285    918.51258    49924.648    10.469628  0.074981184 
   17050   -10932.891    456.86939   -10476.022     884.0659    50380.172    10.469628  0.074895829 
   17100   -10938.541    464.54475   -10473.997     898.9181     50052.84    10.469628  0.073621417 
   17150   -10941.338    472.23293   -10469.105    913.79514    49737.624    10.469628  0.073264237 
   17200   -10928.769    456.96325   -10471.806    884.24751     50678.72    10.469628   0.07468371 
   17250   -10935.587    468.28805   -10467.299    906.16158    50276.805    10.469628  0.074607594 
   17300   -10931.202    469.55305   -10461.649    908.60943    50713.028    10.469628  0.074833578 
   17350   -10929.154    469.83958   -10459.314    909.16388    50841.344    10.469628  0.074790866 
   17400    -10928.79    461.18671   -10467.603    892.42013    50756.075    10.469628  0.074951173 
   17450   -10937.641    461.21248   -10476.429    892.46999    49842.188    10.469628  0.074401057 
   17500   -10939.337    462.47804   -10476.859    894.91891    49919.423    10.469628  0.073592796 
   17550   -10936.063     470.3781   -10465.684    910.20595    50208.047    10.469628  0.073454942 
   17600   -10920.156    464.55308   -10455.603    898.93423    51598.083    10.469628  0.074330956 
   17650   -10934.853    478.11816   -10456.735    925.18336    50411.474    10.469628   0.07413724 
   17700   -10925.269    456.95437   -10468.315    884.23032    51088.042    10.469628  0.074611256 
   17750    -10940.99    472.68605   -10468.304    914.67194     49810.37    10.469628  0.073037984 
   17800       -10937     459.9983   -10477.002    890.12048     50044.22    10.469628  0.073679853 
   17850   -10941.762    463.46413   -10478.298    896.82705    49681.304    10.469628  0.074501897 
   17900   -10932.461    462.55409   -10469.907    895.06607    50388.968    10.469628  0.075577243 
   17950   -10932.488    476.95832   -10455.529    922.93901    50545.618    10.469628  0.075918943 
   18000   -10920.747    457.92081   -10462.826    886.10043    51381.041    10.469628  0.077215061 
   18050   -10933.853    471.54566   -10462.307    912.46524    50491.035    10.469628  0.075601437 
   18100   -10936.232    466.92167    -10469.31    903.51756    50163.988    10.469628  0.073894779 
   18150   -10944.174     461.8459   -10482.328    893.69569    49314.633    10.469628  0.073074468 
   18200   -10948.168    465.55172   -10482.616    900.86664    49272.258    10.469628  0.073273317 
   18250   -10932.623    454.50928   -10478.114    879.49895    50472.705    10.469628  0.075379741 
   18300   -10927.666    462.87217   -10464.794    895.68158    50923.461    10.469628  0.075932994 
   18350   -10930.435    468.61056   -10461.825    906.78565    50666.596    10.469628  0.074912968 
   18400   -10937.702    469.94954   -10467.752    909.37666    49989.025    10.469628  0.073820403 
   18450   -10936.432    458.59894   -10477.833    887.41266    50007.259    10.469628  0.073336131 
   18500   -10942.246    464.58961   -10477.657    899.00491    49559.004    10.469628  0.072694875 
   18550   -10942.064    468.39914   -10473.665    906.37655    49549.212    10.469628  0.073391552 
   18600   -10926.764    465.21819   -10461.545    900.22124    51098.805    10.469628  0.075711143 
   18650   -10923.338    470.87998   -10452.458    911.17711    51338.588    10.469628  0.077558202 
   18700   -10922.597    469.69577   -10452.901    908.88559    51480.638    10.469628   0.07789061 
   18750   -10934.522     465.3873   -10469.135    900.54847    50287.159    10.469628  0.077344283 
   18800   -10941.717    465.98822   -10475.729    901.71129    49677.249    10.469628  0.077331651 
   18850   -10937.005    460.64249   -10476.362    891.36704    49884.025    10.469628  0.078149068 
   18900   -10936.127    466.25869   -10469.868    902.23467    50220.331    10.469628  0.079061678 
   18950   -10927.761    467.65877   -10460.103    904.94389    50819.954    10.469628  0.080620632 
   19000   -10923.996    473.58209   -10450.414    916.40583    51357.788    10.469628  0.081158005 
   19050    -10924.59    467.58951   -10457.001    904.80987     51235.36    10.469628  0.081208787 
   19100   -10933.407    462.58431   -10470.823    895.12454    50342.343    10.469628    0.0799399 
   19150   -10934.182    463.32809   -10470.854     896.5638    50194.016    10.469628  0.077636345 
   19200   -10936.015    467.92472    -10468.09    905.45852    50281.091    10.469628    0.0752685 
   19250   -10937.702    472.14189    -10465.56    913.61896    50183.572    10.469628  0.073313257 
   19300   -10930.826    457.55594    -10473.27    885.39439    50514.009    10.469628  0.073109695 
   19350   -10948.969    470.49977   -10478.469    910.44137    48986.765    10.469628  0.072290835 
   19400   -10939.256    451.49213   -10487.764    873.66062    49736.744    10.469628   0.07415984 
   19450   -10942.716    464.50256   -10478.213    898.83646    49420.709    10.469628   0.07541425 
   19500    -10925.26    454.88113   -10470.379     880.2185    50979.583    10.469628   0.07716204 
   19550   -10936.272    476.19904   -10460.073    921.46976    50319.587    10.469628  0.077218045 
   19600   -10926.348    462.11494   -10464.233    894.21629    51008.544    10.469628  0.078374993 
   19650   -10932.089    463.26958   -10468.819    896.45058    50329.695    10.469628  0.078410703 
   19700   -10939.149    468.56588   -10470.583     906.6992    49933.612    10.469628  0.077303436 
   19750   -10940.997    458.82608   -10482.171    887.85218    49507.792    10.469628  0.077224914 
   19800   -10943.541    458.07165   -10485.469    886.39233    49343.146    10.469628  0.077426272 
   19850   -10934.295    460.80879   -10473.486    891.68882    50271.151    10.469628  0.077945981 
   19900   -10932.899    468.92898    -10463.97    907.40182    50522.261    10.469628  0.077823211 
   19950   -10932.491    465.33909   -10467.152     900.4552    50493.952    10.469628   0.07809503 
   20000   -10932.855     462.2402   -10470.615    894.45867    50521.153    10.469628  0.078076805 
   20050   -10932.243    465.86201   -10466.381    901.46708    50599.462    10.469628  0.077127266 
   20100   -10934.446    478.26383   -10456.182    925.46524    50388.383    10.469628  0.076409546 
   20150   -10925.419    463.23161   -10462.187    896.37712    51074.858    10.469628  0.076863313 
   20200   -10939.033    465.72409   -10473.309    901.20018    50001.662    10.469628  0.076054451 
   20250   -10937.106    456.93647    -10480.17    884.19568    49873.696    10.469628  0.076080342 
   20300   -10939.534    464.02126   -10475.512    897.90512    49842.161    10.469628  0.075704552 
   20350   -10935.551    462.14967   -10473.401     894.2835    50026.936    10.469628  0.075980815 
   20400   -10929.462    462.61875   -10466.843    895.19119    50636.995    10.469628  0.075623457 
   20450   -10939.098    475.87042   -10463.227    920.83386    49933.458    10.469628  0.074505942 
   20500   -10933.637    461.94454   -10471.692    893.88657    50340.352    10.469628  0.075584534 
   20550   -10939.694    466.55613   -10473.137    902.81023    49756.279    10.469628  0.076486174 
   20600   -10932.215     459.3597   -10472.855    888.88476    50304.779    10.469628  0.078081991 
   20650   -10930.185    464.78175   -10465.403    899.37671    50600.305    10.469628  0.078596031 
   20700   -10929.893      474.679   -10455.214    918.52839    50793.806    10.469628  0.078385863 
   20750   -10921.067    476.69703    -10444.37     922.4334    51801.759    10.469628    0.0787515 
   20800   -10917.467    473.76646   -10443.701    916.76259    51914.349    10.469628  0.078716214 
   20850   -10930.178    469.57869     -10460.6    908.65904    50808.702    10.469628  0.077534518 
   20900   -10936.696    465.99465   -10470.701    901.72374    50124.015    10.469628  0.076815895 
   20950   -10936.977    460.02953   -10476.947    890.18093    49877.409    10.469628  0.076773226 
   21000   -10937.896    462.18966   -10475.707    894.36088    49850.138    10.469628  0.076845837 
   21050   -10931.287    468.43904   -10462.848    906.45376    50587.446    10.469628  0.076814596 
   21100   -10928.966    470.10418   -10458.862    909.67589    50838.532    10.469628  0.077019215 
   21150   -10925.217    462.83061   -10462.387    895.60115    51075.611    10.469628  0.077074625 
   21200   -10941.366    476.38726   -10464.979    921.83397    49684.704    10.469628   0.07557799 
   21250   -10934.112    453.01511   -10481.097    876.60765    50093.166    10.469628  0.076896429 
   21300   -10939.407    464.11596   -10475.291    898.08837    49810.593    10.469628  0.077583958 
   21350   -10929.039    462.13838     -10466.9    894.26165    50662.597    10.469628  0.078629655 
   21400   -10924.633    468.89781   -10455.736     907.3415    51198.458    10.469628  0.078266151 
   21450   -10936.769    481.43961   -10455.329    931.61053    50506.218    10.469628  0.076800068 
   21500   -10925.478    456.43168   -10469.046    883.21889    50947.399    10.469628  0.078238901 
   21550   -10936.527    470.85012   -10465.677    911.11932    50137.202    10.469628  0.078066406 
   21600    -10933.87    465.42435   -10468.445    900.62018    50316.309    10.469628    0.0786352 
   21650   -10932.735    459.90983   -10472.825     889.9493    50345.619    10.469628  0.079071982 
   21700   -10936.561    466.80757   -10469.754    903.29678    50061.015    10.469628  0.079318049 
   21750   -10927.416    463.18043   -10464.236    896.27808    50856.951    10.469628  0.079906179 
   21800    -10927.21    471.30424   -10455.906    911.99807    50982.025    10.469628  0.079163044 
   21850   -10927.761    466.01204   -10461.749    901.75738    50735.022    10.469628  0.078602325 
   21900   -10936.265    463.94491    -10472.32    897.75739    50117.094    10.469628  0.076624085 
   21950   -10942.474    459.98704   -10482.487    890.09869    49490.785    10.469628  0.074847237 
   22000   -10943.569    460.93063   -10482.639     891.9246    49417.297    10.469628  0.073929263 
   22050   -10938.876    461.45514   -10477.421    892.93955    49894.962    10.469628  0.073403632 
   22100   -10941.314    468.74949   -10472.565     907.0545    49669.132    10.469628  0.073542636 
   22150   -10929.836    457.71568    -10472.12    885.70349    50452.353    10.469628  0.075472191 
   22200   -10928.146     471.2191   -10456.927    911.83331    50970.361    10.469628  0.075325988 
   22250   -10930.779    471.28993   -10459.489    911.97038    50879.471    10.469628  0.075539296 
   22300   -10933.378    466.64189   -10466.737    902.97618     50406.48    10.469628  0.076625218 
   22350   -10933.352     460.3873   -10472.965    890.87322    50416.585    10.469628  0.077550797 
   22400   -10937.843    465.75271    -10472.09    901.25557    50102.998    10.469628  0.077804609 
   22450   -10934.161    471.85309   -10462.308    913.06012    50308.453    10.469628  0.078920944 
   22500   -10925.408    471.36669   -10454.042    912.11891    51269.841    10.469628  0.081125017 
   22550   -10915.231    466.27285   -10448.958    902.26207    52030.125    10.469628  0.082288969 
   22600   -10922.529    474.06809   -10448.461    917.34626    51488.418    10.469628  0.080664483 
   22650   -10933.905    467.95542    -10465.95    905.51794    50422.396    10.469628  0.078660037 
   22700   -10937.752    464.09281   -10473.659    898.04358    49926.987    10.469628  0.077666176 
   22750   -10940.933    463.23959   -10477.694    896.39256    49623.358    10.469628  0.077724279 
   22800   -10926.707    450.87434   -10475.832    872.46515    50763.451    10.469628  0.078688838 
   22850   -10930.739    470.96927    -10459.77    911.34989    50771.515    10.469628  0.076757542 
   22900   -10932.262     470.6614   -10461.601    910.75413    50583.376    10.469628  0.074648517 
   22950   -10938.243    465.29291    -10472.95    900.36583    49915.519    10.469628   0.07302076 
   23000   -10941.282    461.40869   -10479.874    892.84967    49705.242    10.469628  0.071980469 
   23050    -10943.91    464.75066    -10479.16    899.31655    49328.356    10.469628   0.07159903 
   23100   -10938.469     466.4968   -10471.972    902.69543    50082.994    10.469628  0.072584786 
   23150   -10928.336     471.4746   -10456.861    912.32773    50858.925    10.469628    0.0748222 
   23200   -10920.694    464.28874   -10456.405    898.42271    51607.161    10.469628  0.076927216 
   23250   -10929.357    470.38432   -10458.972    910.21798    50908.294    10.469628  0.076717132 
   23300   -10930.421     454.3257   -10476.096    879.14372    50531.894    10.469628   0.07608559 
   23350   -10944.279    467.56391   -10476.716    904.76034    49320.948    10.469628   0.07401817 
   23400   -10938.571    461.75828   -10476.813    893.52614    49878.708    10.469628  0.073323636 
   23450   -10939.785    467.48852   -10472.296    904.61446    49847.058    10.469628  0.073450829 
   23500   -10929.648    468.61674   -10461.031    906.79762     50844.03    10.469628  0.074890612 
   23550   -10923.752     471.5483   -10452.203    912.47033    51449.962    10.469628  0.075881189 
   23600    -10926.29    470.93518   -10455.355    911.28391    51301.638    10.469628   0.07603412 
   23650   -10936.651    464.71888   -10471.932    899.25506    49906.286    10.469628  0.076122259 
   23700   -10930.233    457.60188   -10472.631    885.48329    50515.108    10.469628  0.075993927 
   23750   -10937.555    471.10156   -10466.453    911.60588     50172.56    10.469628  0.074975395 
   23800   -10931.235    464.06373   -10467.171    897.98731    50514.281    10.469628  0.075219383 
   23850    -10933.58    467.51296   -10466.067    904.66175    50433.182    10.469628  0.074659623 
   23900   -10938.626    468.22988   -10470.396    906.04902    50037.606    10.469628  0.074857515 
   23950   -10926.901    448.87295   -10478.028    868.59237    50787.069    10.469628  0.076102595 
   24000   -10941.115    475.20904   -10465.906    919.55405    49885.944    10.469628  0.074502576 
   24050   -10933.437      465.101   -10468.336    899.99449    50400.714    10.469628  0.075051055 
   24100   -10932.659    462.12826   -10470.531    894.24207    50524.602    10.469628  0.075907339 
   24150   -10932.209    467.16297   -10465.046     903.9845    50562.144    10.469628  0.075917541 
   24200    -10920.98    472.92526   -10448.055    915.13483    51711.202    10.469628  0.076094811 
   24250   -10924.555    479.05985   -10445.496    927.00558    51485.441    10.469628  0.075454088 
   24300   -10930.335    472.80194   -10457.533     914.8962    50810.528    10.469628  0.074673722 
   24350   -10933.325    466.00847   -10467.316    901.75048    50466.354    10.469628  0.074609308 
   24400   -10935.875    462.81158   -10473.064    895.56433    50228.816    10.469628  0.074514546 
   24450   -10937.376    461.44899   -10475.927    892.92764    50032.089    10.469628  0.074601321 
   24500   -10938.875    468.13702   -10470.738    905.86933    49995.447    10.469628  0.074137379 
   24550   -10936.149    471.42244   -10464.726    912.22679    50248.564    10.469628  0.074812493 
   24600   -10926.077    455.67324   -10470.404    881.75128    50856.579    10.469628    0.0772897 
   24650   -10927.965    469.20896   -10458.756     907.9436    50902.148    10.469628  0.077655509 
   24700   -10924.577    478.45205   -10446.125    925.82945    51335.457    10.469628  0.077395252 
   24750   -10926.589    469.99965    -10456.59    909.47361    50964.034    10.469628  0.077328413 
   24800   -10932.735    466.95655   -10465.778    903.58507    50406.014    10.469628  0.077010728 
   24850    -10935.57    462.34816   -10473.222    894.66759     50030.82    10.469628  0.076875939 
   24900   -10933.531    460.76593   -10472.765     891.6059    50196.067    10.469628  0.076318036 
   24950   -10935.753     471.7056   -10464.048    912.77472    50212.443    10.469628  0.075439047 
   25000   -10927.789    469.65559   -10458.133    908.80785    50917.915    10.469628  0.075467103 
   25050   -10928.067    474.88691    -10453.18    918.93072    50943.365    10.469628  0.075556756 
   25100   -10928.719    463.43207   -10465.287    896.76502    50605.389    10.469628  0.076280804 
   25150    -10933.28    462.47614   -10470.804    894.91524    50456.773    10.469628  0.075672833 
   25200   -10936.729    466.33627   -10470.393    902.38479    50031.102    10.469628  0.074667759 
   25250   -10942.674     473.7031   -10468.971    916.63999    49581.507    10.469628  0.074386677 
   25300   -10929.743    449.56443   -10480.178     869.9304    50343.614    10.469628  0.076620489 
   25350   -10939.801    466.97446   -10472.827    903.61972    49682.284    10.469628  0.076422487 
   25400   -10931.506    466.33905   -10465.167    902.39016     50535.38    10.469628  0.076238568 
   25450   -10938.268    472.24907   -10466.019    913.82636    49926.162    10.469628  0.076653139 
   25500   -10923.691    446.92366   -10476.768    864.82038    50998.658    10.469628  0.078157758 
   25550   -10938.436    475.61633   -10462.819    920.34219    49901.095    10.469628  0.075965178 
   25600   -10928.386    467.64416   -10460.741    904.91562    50916.927    10.469628  0.074656347 
   25650    -10933.89    466.83586   -10467.054    903.35152    50331.637    10.469628  0.073816815 
   25700   -10931.482    458.95819   -10472.524    888.10783    50432.978    10.469628  0.073168679 
   25750   -10940.336    471.66502   -10468.671    912.69619    49698.705    10.469628  0.071473053 
   25800   -10937.964    462.98575   -10474.978    895.90137    50045.393    10.469628  0.071742914 
   25850   -10938.981    454.94266   -10484.039    880.33757    49796.814    10.469628  0.072483086 
   25900   -10941.082    464.53178    -10476.55      898.893    49759.769    10.469628  0.073177008 
   25950   -10931.651    467.80492   -10463.846     905.2267    50553.428    10.469628  0.075203818 
   26000   -10926.357    465.84271   -10460.514    901.42973    51094.967    10.469628  0.077161603 
   26050   -10926.823    465.54075   -10461.282    900.84541    51008.726    10.469628  0.078233035 
   26100   -10930.691    467.61398   -10463.077    904.85723    50689.347    10.469628  0.078256676 
   26150    -10937.23    463.48927   -10473.741    896.87569    49966.165    10.469628  0.078094179 
   26200   -10941.736    457.01566    -10484.72    884.34892    49515.928    10.469628  0.078086561 
   26250   -10938.673    460.11588   -10478.557    890.34801     49933.77    10.469628  0.077565053 
   26300    -10940.75    467.55755   -10473.192    904.74804    49611.241    10.469628  0.077242794 
   26350   -10925.389    455.67594   -10469.713    881.75651    50992.527    10.469628   0.07778277 
   26400   -10934.547    475.50748   -10459.039    920.13155    50456.228    10.469628  0.076142041 
   26450   -10935.975    471.93668   -10464.038    913.22187    50378.835    10.469628   0.07586606 
   26500   -10931.887    460.72214   -10471.165    891.52116    50456.729    10.469628  0.076708962 
   26550   -10936.518    464.28928   -10472.229    898.42376    50086.082    10.469628  0.077005976 
   26600   -10934.447    464.20419   -10470.243     898.2591    50306.417    10.469628  0.077305205 
   26650   -10923.581    467.61329   -10455.968    904.85588    51260.676    10.469628  0.077175322 
   26700   -10931.878    478.68509   -10453.193    926.28039    50813.524    10.469628  0.076641835 
   26750   -10927.565    462.47756   -10465.088    894.91798    50753.549    10.469628  0.077592849 
   26800   -10932.911    466.43644   -10466.474    902.57862    50375.222    10.469628  0.076718649 
   26850   -10937.455    465.97115   -10471.484    901.67825    49984.256    10.469628  0.076003898 
   26900   -10940.072      457.007   -10483.065    884.33217    49814.306    10.469628  0.076715208 
   26950   -10937.732    458.90095   -10478.831    887.99707    49772.544    10.469628  0.077030088 
   27000   -10935.704    462.63336   -10473.071    895.21946    49990.425    10.469628  0.076694084 
   27050   -10942.015    471.35588   -10470.659    912.09799    49741.338    10.469628  0.076808951 
   27100   -10929.725    456.75886   -10472.967    883.85201    50609.493    10.469628  0.078550426 
   27150   -10928.734     465.9611   -10462.772    901.65882    50710.123    10.469628   0.07871507 
   27200   -10928.436    472.91384   -10455.522    915.11272    51046.835    10.469628    0.0779851 
   27250   -10927.506    465.55193   -10461.954    900.86704    51117.441    10.469628  0.077729986 
   27300   -10930.443    463.26193   -10467.181    896.43579    50668.105    10.469628  0.077036872 
   27350   -10942.298    474.05245   -10468.246      917.316    49515.519    10.469628  0.075831875 
   27400   -10929.777     455.9824   -10473.795    882.34952    50419.465    10.469628  0.076793132 
   27450   -10938.216    469.60374   -10468.612    908.70752    49912.018    10.469628  0.076512448 
   27500   -10934.189    466.44755   -10467.741    902.60012    50321.532    10.469628   0.07693069 
   27550   -10936.405    460.42086   -10475.984    890.93816    49923.811    10.469628  0.077943447 
   27600   -10931.753    448.78112   -10482.972    868.41467    50145.856    10.469628  0.077883828 
   27650   -10949.172    478.95725   -10470.215    926.80705    49153.653    10.469628  0.075462777 
   27700    -10933.28    457.20589   -10476.074    884.71704    50248.336    10.469628  0.077297638 
   27750   -10935.344    463.04427   -10472.299    896.01459    50149.383    10.469628  0.078810853 
   27800   -10933.133    467.88111   -10465.252    905.37413    50523.805    10.469628  0.079860831 
   27850   -10928.704    464.96881   -10463.735    899.73869    50720.018    10.469628  0.081263321 
   27900   -10923.546    462.02649   -10461.519    894.04514    51109.219    10.469628  0.081807684 
   27950   -10929.988    482.07663   -10447.912    932.84321    50898.457    10.469628  0.079931192 
   28000   -10926.844    467.78364    -10459.06    905.18553    50987.029    10.469628  0.079398035 
   28050   -10930.222    463.10052   -10467.121    896.12344    50602.157    10.469628  0.078546163 
   28100   -10939.937    467.93684       -10472    905.48198    49765.809    10.469628  0.077057257 
   28150   -10934.838    454.55907   -10480.279     879.5953    50022.558    10.469628  0.077052354 
   28200   -10939.244    467.40638   -10471.837     904.4555    49902.119    10.469628  0.075748714 
   28250    -10933.52    468.59692   -10464.924    906.75926     50449.07    10.469628   0.07551481 
   28300   -10929.259    464.25739   -10465.002    898.36205    50725.816    10.469628  0.075765581 
   28350    -10932.97    468.23391   -10464.737    906.05681    50524.654    10.469628  0.074900846 
   28400   -10932.968    464.18138   -10468.786    898.21498    50435.258    10.469628  0.074346556 
   28450   -10939.511    466.04151    -10473.47    901.81441    49869.725    10.469628  0.073882864 
   28500   -10943.981    461.03907   -10482.941    892.13443    49275.349    10.469628  0.074236144 
   28550   -10936.206    445.43121   -10490.775    861.93242     49751.61    10.469628   0.07515223 
   28600   -10941.571    467.29062    -10474.28    904.23151    49695.762    10.469628  0.074363119 
   28650   -10938.316    468.32087   -10469.995     906.2251    50093.641    10.469628   0.07462607 
   28700   -10930.948    460.77243   -10470.176    891.61847    50615.768    10.469628  0.075987843 
   28750   -10932.164    465.97436    -10466.19    901.68448    50576.022    10.469628  0.076994821 
   28800   -10926.936    470.73184   -10456.204    910.89044    50990.958    10.469628  0.077578286 
   28850   -10923.877    469.68385   -10454.193    908.86252    51248.061    10.469628  0.078138275 
   28900   -10934.408      464.829   -10469.579    899.46815    50393.515    10.469628  0.077945094 
   28950   -10939.075    462.59207   -10476.483    895.13956    49795.563    10.469628  0.077250949 
   29000   -10936.592    459.89576   -10476.696    889.92207    49974.105    10.469628  0.077368368 
   29050   -10936.459    468.64215   -10467.817    906.84678    50050.856    10.469628  0.077218347 
   29100   -10934.301    470.08675   -10464.215    909.64215    50287.108    10.469628  0.077839322 
   29150   -10924.338     458.4514   -10465.887    887.12716     51033.72    10.469628  0.079057818 
   29200   -10927.234    464.70438    -10462.53      899.227    50797.337    10.469628  0.077662193 
   29250   -10936.735    474.81981   -10461.916    918.80088    50134.605    10.469628  0.074834363 
   29300   -10939.002    463.43456   -10475.568    896.76983    49852.668    10.469628  0.073767204 
   29350   -10938.105    460.60179   -10477.503    891.28828    49942.779    10.469628  0.073813277 
   29400   -10936.888    465.66257   -10471.226    901.08115    50148.691    10.469628  0.073938927 
   29450   -10936.514    470.48582   -10466.028    910.41439    50158.107    10.469628  0.075087111 
   29500   -10918.235    455.04582   -10463.189    880.53718    51602.904    10.469628  0.076757875 
   29550   -10932.278     484.4643   -10447.813    937.46346    50722.059    10.469628  0.075094148 
   29600   -10927.343    466.93156   -10460.412     903.5367    50835.892    10.469628  0.075344226 
   29650   -10932.477      464.055   -10468.422    897.97042    50478.963    10.469628  0.075471021 
   29700   -10937.686    465.44029   -10472.245    900.65102    50024.411    10.469628  0.075309227 
   29750   -10938.372    458.58396   -10479.788    887.38366    49730.661    10.469628  0.076321845 
   29800   -10936.783    458.43357   -10478.349    887.09265    49817.071    10.469628  0.076720543 
   29850   -10937.624    470.37307   -10467.251    910.19621    49981.239    10.469628  0.077102654 
   29900   -10926.017    459.65783   -10466.359    889.46166    50920.767    10.469628  0.079165398 
   29950   -10929.544    469.14067   -10460.403    907.81145    50637.396    10.469628  0.079075135 
   30000   -10927.597    466.28812   -10461.309    902.29161     50885.14    10.469628  0.078527597 
   30050   -10933.978    460.14801    -10473.83    890.41018    50235.474    10.469628  0.076771365 
   30100   -10952.795    467.07173   -10485.724    903.80795    48512.859    10.469628  0.074651723 
   30150    -10935.37    446.35708   -10489.013    863.72402    49786.874    10.469628    0.0751206 
   30200    -10946.07    471.27237   -10474.798    911.93639    49173.336    10.469628  0.073542217 
   30250   -10932.483    458.30729   -10474.176     886.8483    50527.625    10.469628  0.073540233 
   30300   -10942.531    473.56032    -10468.97     916.3637    49708.607    10.469628  0.073460237 
   30350   -10924.895    455.26516    -10469.63    880.96161    50922.533    10.469628  0.074963224 
   30400   -10933.597    477.95951   -10455.638    924.87637    50487.333    10.469628  0.073773461 
   30450    -10930.09    468.94699   -10461.143    907.43666    50904.718    10.469628  0.074376871 
   30500   -10928.232    462.83325   -10465.399    895.60627    51056.467    10.469628  0.075141601 
   30550   -10933.049    468.41524   -10464.634    906.40771     50380.86    10.469628  0.074142853 
   30600   -10939.325    464.45016   -10474.875    898.73508    49793.082    10.469628   0.07387399 
   30650   -10938.946      457.465   -10481.481    885.21841     49889.43    10.469628  0.074172631 
   30700   -10942.934    466.54881   -10476.385    902.79607    49600.303    10.469628  0.073953349 
   30750    -10938.66    463.64424   -10475.016    897.17558    49905.627    10.469628  0.075380249 
   30800   -10930.244    461.32561   -10468.918     892.6889    50466.611    10.469628  0.077167752 
   30850   -10924.844    470.31264   -10454.531    910.07928    51103.288    10.469628  0.077495114 
   30900   -10933.842    477.01032   -10456.832    923.03964    50619.348    10.469628  0.077007186 
   30950   -10926.165    458.26913   -10467.896    886.77445    50945.322    10.469628  0.077541605 
   31000   -10935.264    467.18752   -10468.077    904.03201    50289.551    10.469628     0.076563 
   31050   -10937.072    468.19124   -10468.881    905.97424    50154.286    10.469628  0.075632499 
   31100   -10935.987    458.09979   -10477.888    886.44678    50061.294    10.469628  0.075299205 
   31150   -10941.985    457.34705   -10484.638    884.99019    49379.055    10.469628  0.074332955 
   31200   -10941.735    466.20285   -10475.532    902.12662    49612.391    10.469628  0.073232147 
   31250   -10931.965    465.90405   -10466.061    901.54843     50417.88    10.469628   0.07382827 
   31300    -10932.68    469.39404   -10463.286    908.30172    50411.908    10.469628  0.074277792 
   31350    -10930.51     464.2619   -10466.248    898.37078     50635.11    10.469628  0.074605719 
   31400     -10930.7    464.27425   -10466.426    898.39467     50531.34    10.469628  0.074205637 
   31450   -10937.989    469.36329   -10468.626    908.24223    50144.877    10.469628  0.073387891 
   31500   -10936.487    459.89741    -10476.59    889.92527    49988.913    10.469628  0.074123262 
   31550    -10938.85    460.97703   -10477.873    892.01438    49750.507    10.469628  0.074975501 
   31600   -10934.308    468.29498   -10466.013      906.175    50190.691    10.469628  0.076093541 
   31650   -10926.659     470.7933   -10455.866    911.00937     51056.43    10.469628  0.077275942 
   31700   -10927.121    466.37528   -10460.746    902.46027    50804.225    10.469628  0.078256713 
   31750   -10929.564    462.13394    -10467.43    894.25306     50658.14    10.469628  0.078188839 
   31800   -10940.581    473.40664   -10467.174    916.06631    49882.437    10.469628   0.07623702 
   31850   -10938.789    463.67777   -10475.111    897.24046    49866.309    10.469628  0.076018667 
   31900   -10932.777     456.8812   -10475.895    884.08874     50308.96    10.469628  0.076987726 
   31950   -10939.396    471.41159   -10467.984    912.20579    49952.944    10.469628  0.076890802 
   32000   -10926.342      460.024   -10466.318    890.17022    50946.862    10.469628   0.07804156 
   32050   -10926.314    468.92546   -10457.388    907.39501    51112.471    10.469628  0.077342227 
   32100   -10938.705    482.49283   -10456.212    933.64857    50311.625    10.469628  0.076154184 
   32150   -10930.216     461.0334   -10469.183    892.12345    50574.975    10.469628  0.077582971 
   32200   -10932.497    466.47767   -10466.019    902.65841    50412.272    10.469628  0.076958302 
   32250   -10940.836    472.16407   -10468.672    913.66188    49590.969    10.469628  0.076479079 
   32300   -10930.908    453.19046   -10477.717    876.94697     50524.94    10.469628  0.077781147 
   32350   -10940.212     468.2766   -10471.935    906.13943    49874.642    10.469628  0.077444842 
   32400   -10928.481    460.59542   -10467.886    891.27594    50717.783    10.469628  0.078082721 
   32450   -10927.248    468.09283   -10459.156    905.78382    50888.924    10.469628  0.077198022 
   32500   -10927.278    470.44498   -10456.833    910.33535    50969.807    10.469628  0.075065435 
   32550   -10943.041    476.39553   -10466.645    921.84997    49700.105    10.469628  0.073617529 
   32600   -10938.408    460.63652   -10477.772    891.35549     49684.08    10.469628  0.075421658 
   32650   -10934.185    459.36512    -10474.82    888.89525    50238.252    10.469628  0.076412989 
   32700   -10936.903    472.17977   -10464.723    913.69226    50193.176    10.469628  0.076964539 
   32750   -10920.964    457.58673   -10463.377    885.45397    51459.152    10.469628  0.078835729 
   32800   -10928.179    478.02927   -10450.149    925.01135    50869.184    10.469628  0.077979569 
   32850   -10923.139    468.98198   -10454.157    907.50437      51346.9    10.469628   0.07776707 
   32900   -10932.467     472.7398   -10459.728    914.77596    50695.827    10.469628  0.076710595 
   32950   -10933.384    465.72464    -10467.66    901.20126    50395.071    10.469628  0.075650373 
   33000    -10937.42    462.05933   -10475.361     894.1087    49855.014    10.469628  0.074771253 
   33050   -10942.697    463.93118   -10478.766    897.73082     49480.96    10.469628  0.074183167 
   33100   -10935.453    455.97642   -10479.477    882.33794    50175.803    10.469628  0.074733247 
   33150   -10937.059    473.78007   -10463.279    916.78892    50407.905    10.469628  0.074532341 
   33200   -10932.098    467.19395   -10464.904    904.04444    50540.423    10.469628  0.076149084 
   33250   -10929.545    458.66784   -10470.877    887.54598    50687.253    10.469628  0.077969384 
   33300   -10930.239    465.88578   -10464.353    901.51307    50720.308    10.469628  0.077664743 
   33350   -10932.013     478.5924    -10453.42    926.10104    50693.179    10.469628  0.076600943 
   33400   -10932.491     464.9968   -10467.494    899.79284    50481.448    10.469628  0.077263621 
   33450   -10933.274    459.31041   -10473.964    888.78939    50385.599    10.469628  0.078693964 
   33500    -10933.38    467.30378   -10466.076    904.25697    50462.162    10.469628  0.078815967 
   33550   -10926.946     467.3602   -10459.586    904.36615    50962.561    10.469628  0.078484534 
   33600   -10936.215    471.81753   -10464.398    912.99131    50282.863    10.469628  0.078198197 
   33650   -10932.397    456.59622   -10475.801    883.53729    50275.653    10.469628  0.078834592 
   33700   -10936.215    463.60249   -10472.613    897.09479    50152.385    10.469628  0.078130643 
   33750   -10933.699     467.4926   -10466.207    904.62235    50509.193    10.469628  0.077136074 
   33800    -10940.32     474.7396    -10465.58    918.64567    49711.813    10.469628   0.07663613 
   33850   -10930.711     450.7368   -10479.974    872.19901    50359.702    10.469628  0.078411659 
   33900   -10938.593    463.04581   -10475.547    896.01758     49765.92    10.469628  0.078082218 
   33950   -10934.666    465.43231   -10469.233    900.63558    50176.574    10.469628  0.077423217 
   34000   -10931.029    466.78144   -10464.247    903.24621     50493.75    10.469628  0.077099956 
   34050   -10937.995    472.35712   -10465.638    914.03545    50121.215    10.469628  0.077238051 
   34100   -10932.012    452.69782   -10479.314    875.99368    50266.844    10.469628  0.078877688 
   34150    -10933.19    459.52281   -10473.667    889.20039    50376.133    10.469628   0.07872282 
   34200   -10937.585    469.96017   -10467.625    909.39723    50233.813    10.469628  0.078265168 
   34250   -10923.864    458.23468   -10465.629     886.7078    51182.424    10.469628  0.078522666 
   34300    -10936.07    475.88565   -10460.185    920.86333    50199.241    10.469628   0.07668342 
   34350    -10934.23    464.61475   -10469.616    899.05355    50298.335    10.469628  0.076523293 
   34400   -10940.005    466.77107   -10473.234    903.22615    49701.694    10.469628  0.076630837 
   34450   -10933.914     460.3806   -10473.534    890.86026    50250.678    10.469628  0.077330393 
   34500   -10936.238    467.93126   -10468.306    905.47119    49982.823    10.469628  0.077794434 
   34550   -10928.365    467.97626   -10460.389    905.55825    50863.757    10.469628  0.078624001 
   34600   -10925.038    475.60693   -10449.431    920.32399    51205.063    10.469628  0.079089731 
   34650   -10918.425       460.96   -10457.465    891.98144    51688.467    10.469628  0.079900182 
   34700   -10930.665    462.48237   -10468.183    894.92729    50543.802    10.469628  0.078376147 
   34750   -10939.979    467.17236   -10472.807    904.00266    49781.416    10.469628  0.075651079 
   34800   -10946.877    454.71084   -10492.167    879.88899    48951.783    10.469628   0.07444188 
   34850   -10949.517    455.39589   -10494.121    881.21459    48702.938    10.469628  0.074830111 
   34900   -10937.274    458.17979   -10479.094    886.60158    49889.082    10.469628   0.07624683 
   34950   -10928.362    463.54638   -10464.816    896.98621    50720.868    10.469628  0.077219085 
   35000    -10927.83    470.87793   -10456.952    911.17313    50928.242    10.469628  0.076909222 
   35050   -10931.988    468.64947   -10463.338    906.86096    50518.337    10.469628  0.076883853 
   35100   -10936.378    464.62966   -10471.749    899.08241    50029.551    10.469628  0.076713895 
   35150   -10936.796    461.17534   -10475.621    892.39813    50140.851    10.469628  0.076642052 
   35200   -10936.114    462.87054   -10473.244    895.67842    50083.319    10.469628  0.076896535 
   35250   -10925.423     470.1218   -10455.301    909.70999    51287.278    10.469628  0.076748014 
   35300   -10929.748    474.04447   -10455.704    917.30055    50815.837    10.469628  0.076358934 
   35350    -10935.32    468.16931   -10467.151    905.93182     50209.24    10.469628  0.076424465 
   35400   -10936.166    461.92709   -10474.239     893.8528    50088.541    10.469628   0.07706519 
   35450   -10934.642    462.06466   -10472.577    894.11901    50268.393    10.469628  0.077573286 
   35500   -10935.803    467.65839   -10468.144    904.94316    50165.834    10.469628  0.078291414 
   35550   -10923.925    462.76966   -10461.155    895.48321    51285.532    10.469628  0.079197375 
   35600   -10929.698    479.54661   -10450.151    927.94748    50988.062    10.469628  0.078449599 
   35650   -10928.156    466.35093   -10461.805    902.41315     50885.82    10.469628  0.078966868 
   35700   -10936.247    464.54486   -10471.702    898.91832    50172.324    10.469628  0.079348261 
   35750    -10930.45    458.56454   -10471.886    887.34608     50679.22    10.469628  0.079597896 
   35800   -10931.489    467.17974   -10464.309    904.01695     50614.02    10.469628  0.078471682 
   35850   -10938.349    472.46827   -10465.881    914.25052     50133.84    10.469628  0.078112899 
   35900   -10935.137     462.1345   -10473.002    894.25414    50142.631    10.469628  0.079480758 
   35950   -10926.432    456.22296   -10470.209    882.81501    50877.528    10.469628  0.080340063 
   36000   -10934.306    472.68811   -10461.618    914.67593    50320.911    10.469628  0.079149871 
   36050   -10930.162    464.44916   -10465.712    898.73314    50568.767    10.469628   0.07873707 
   36100   -10934.795    460.74255   -10474.052    891.56065    50171.744    10.469628  0.077756913 
   36150     -10941.5    461.71459   -10479.785    893.44159    49635.227    10.469628  0.076161873 
   36200   -10943.512    455.94454   -10487.567    882.27625    49289.897    10.469628   0.07528155 
   36250   -10942.504    460.02088   -10482.483    890.16419    49493.797    10.469628  0.074830257 
   36300   -10939.108    468.11832    -10470.99    905.83314      49790.8    10.469628  0.075816541 
   36350   -10928.352    461.84332   -10466.509    893.69069    50790.725    10.469628  0.078045202 
   36400    -10926.69     470.6876   -10456.002    910.80484    50932.357    10.469628  0.078303629 
   36450   -10925.329    468.36729   -10456.962    906.31492    51160.204    10.469628  0.078243809 
   36500    -10933.49    471.74459   -10461.745    912.85017    50469.291    10.469628  0.078221329 
   36550   -10932.124    463.20153   -10468.922    896.31891    50446.917    10.469628  0.078557751 
   36600   -10935.468    462.59907   -10472.869    895.15312    50104.444    10.469628  0.078606954 
   36650   -10933.095    458.45511    -10474.64    887.13433    50242.575    10.469628  0.078706134 
   36700   -10933.393    469.48867   -10463.905    908.48484    50434.634    10.469628  0.077807689 
   36750   -10930.951    473.49501   -10457.456    916.23733    50760.799    10.469628   0.07694774 
   36800    -10934.46    466.66658   -10467.794    903.02396    50318.216    10.469628  0.076864667 
   36850   -10935.915    461.17188   -10474.743    892.39143    50034.319    10.469628  0.076799275 
   36900   -10941.966    466.97462   -10474.992    903.62004    49563.415    10.469628  0.076756418 
   36950    -10928.86    456.07374   -10472.786    882.52626    50575.768    10.469628  0.077740946 
   37000   -10936.553    476.11399   -10460.439    921.30519    50291.308    10.469628  0.077213682 
   37050   -10926.254    464.21948   -10462.034    898.28869    50999.838    10.469628  0.077998434 
   37100   -10927.852    462.90985   -10464.942    895.75449    50691.601    10.469628  0.077705054 
   37150    -10938.98    470.41258   -10468.567    910.27266    49996.875    10.469628  0.076419926 
   37200   -10935.103    453.90328     -10481.2    878.32631    50128.592    10.469628  0.075930236 
   37250   -10950.868    465.86314   -10485.004    901.46925    48705.287    10.469628  0.074787283 
   37300   -10932.134    448.30165   -10483.833    867.48686    50435.781    10.469628  0.076036086 
   37350   -10941.869    478.02142   -10463.848    924.99616    49701.911    10.469628  0.075082176 
   37400   -10929.385      458.659   -10470.726    887.52887    50764.043    10.469628  0.076114301 
   37450   -10939.586    466.71494   -10472.871    903.11753    49864.607    10.469628  0.076490195 
   37500   -10924.686    456.03764   -10468.649    882.45642     51177.85    10.469628  0.076617464 
   37550   -10939.625     482.2638   -10457.361    933.20538    50068.476    10.469628  0.074869369 
   37600    -10926.98    460.53111   -10466.448     891.1515    50909.053    10.469628  0.075269375 
   37650   -10939.181    469.27957   -10469.901    908.08023     49877.29    10.469628  0.074503881 
   37700   -10933.433    459.91188   -10473.521    889.95326    50365.983    10.469628   0.07455226 
   37750   -10941.194    470.87328   -10470.321    911.16414    49753.045    10.469628  0.074066695 
   37800   -10933.702    458.55142   -10475.151     887.3207    50319.922    10.469628  0.075161681 
   37850   -10948.891    465.14439   -10483.746    900.07844    49027.204    10.469628  0.075484944 
   37900   -10935.893     450.3488   -10485.544     871.4482     50008.58    10.469628  0.077276108 
   37950   -10937.468    467.20357   -10470.264    904.06306     50075.74    10.469628  0.078263075 
   38000   -10929.588    464.05762    -10465.53    897.97549    50643.665    10.469628  0.079882792 
   38050    -10931.25     470.1182   -10461.132    909.70301    50593.106    10.469628  0.080443556 
   38100   -10927.503    463.09098   -10464.412    896.10499    50804.251    10.469628   0.08104253 
   38150   -10939.446    462.35214   -10477.094     894.6753     49745.83    10.469628  0.080707382 
   38200   -10935.278    454.35607   -10480.922    879.20249    50041.471    10.469628   0.08006361 
   38250   -10939.433    471.49977   -10467.933    912.37643     49955.14    10.469628  0.078420169 
   38300    -10933.26    466.33049   -10466.929    902.37359    50439.264    10.469628  0.078336383 
   38350   -10931.717    463.41546   -10468.302    896.73288     50412.53    10.469628  0.078671057 
   38400   -10926.488    460.80932   -10465.678    891.68985    50939.438    10.469628  0.078189368 
   38450   -10930.205    475.54873   -10454.656    920.21138    50775.871    10.469628  0.076255337 
   38500   -10932.086    472.28892   -10459.798    913.90347    50723.629    10.469628  0.075279727 
   38550    -10939.87     464.4216   -10475.448     898.6798    49592.749    10.469628  0.075179945 
[...]
  990700   -10938.984    462.53324   -10476.451    895.02573    49945.075    10.469628  0.076218065 
  990750    -10933.36    464.73677   -10468.623    899.28968    50411.924    10.469628  0.076437542 
  990800   -10930.751    464.09791   -10466.653    898.05345    50654.724    10.469628  0.077004154 
  990850   -10932.686    469.04309   -10463.643    907.62262    50449.616    10.469628   0.07720633 
  990900   -10929.737    464.65616   -10465.081    899.13369    50674.087    10.469628  0.077701277 
  990950   -10930.075    458.85638   -10471.219    887.91082     50465.67    10.469628  0.077045945 
  991000   -10945.727    472.76304   -10472.964    914.82092    49379.964    10.469628  0.075325626 
  991050   -10938.007    453.08972   -10484.918    876.75202     49797.77    10.469628    0.0766142 
  991100   -10935.732    458.67817   -10477.054    887.56596    49942.778    10.469628  0.076770343 
  991150   -10934.292    466.27677   -10468.015    902.26966     50288.32    10.469628  0.075602718 
  991200   -10933.865    466.16734   -10467.698     902.0579    50268.282    10.469628  0.074562511 
  991250   -10936.009    464.47408   -10471.535    898.78135    50187.731    10.469628  0.074003211 
  991300   -10937.251    458.66196   -10478.589    887.53459    49962.183    10.469628    0.0737926 
  991350    -10939.92    459.95682   -10479.963    890.04022    49819.305    10.469628  0.073005246 
  991400   -10943.749    473.43785   -10470.311    916.12671    49561.273    10.469628  0.073187477 
  991450   -10929.356    462.62522    -10466.73    895.20371    50690.414    10.469628  0.076009289 
  991500   -10923.352    469.02218   -10454.329    907.58216    51361.482    10.469628  0.077738075 
  991550   -10920.722    472.47351   -10448.248    914.26066    51637.588    10.469628  0.078281795 
  991600   -10927.272    468.49773   -10458.775    906.56733    50966.342    10.469628  0.077689933 
  991650   -10936.865    468.27296   -10468.592    906.13239    50104.388    10.469628  0.076479873 
  991700   -10936.081    462.37451   -10473.707    894.71857    50046.125    10.469628  0.076122503 
  991750    -10935.74    459.18508   -10476.555    888.54687        50123    10.469628  0.076223741 
  991800   -10933.421    465.91282   -10467.508    901.56539    50571.257    10.469628  0.075811656 
  991850    -10925.78    467.11764   -10458.663    903.89678    51265.822    10.469628  0.075520925 
  991900   -10929.584    470.77298   -10458.811    910.97005    50865.627    10.469628  0.074775029 
  991950    -10932.37    464.13109   -10468.239    898.11765    50659.818    10.469628   0.07395869 
  992000   -10941.912    465.47501   -10476.437    900.71822    49737.895    10.469628  0.073151918 
  992050   -10940.182     461.9127    -10478.27    893.82496    49582.174    10.469628   0.07389037 
  992100   -10933.621    461.41007   -10472.211    892.85233    50223.265    10.469628  0.074698655 
  992150   -10934.719    469.62518   -10465.094      908.749    50358.289    10.469628  0.075013086 
  992200   -10929.146     463.5597   -10465.587    897.01198     50823.74    10.469628  0.075979972 
  992250   -10931.394    469.17015   -10462.224    907.86849    50609.109    10.469628   0.07604376 
  992300   -10931.076    467.15387   -10463.922    903.96688    50694.262    10.469628  0.076448557 
  992350   -10931.779    460.01252   -10471.767      890.148    50438.829    10.469628  0.076536456 
  992400   -10936.816    463.41037   -10473.406    896.72302    50045.824    10.469628  0.075346602 
  992450   -10938.611      468.561    -10470.05    906.68976     49940.68    10.469628  0.074511713 
  992500   -10934.905    463.41607   -10471.488    896.73406    50240.745    10.469628  0.075485475 
  992550    -10936.49    462.44686   -10474.044    894.85858    50084.531    10.469628   0.07639069 
  992600    -10934.09    464.57548   -10469.515    898.97758    50365.585    10.469628  0.077057252 
  992650   -10925.697    466.60962   -10459.088    902.91374    51120.371    10.469628  0.077872194 
  992700   -10922.239    471.97644   -10450.263    913.29881    51509.137    10.469628  0.077488229 
  992750   -10923.758    468.73644   -10455.021    907.02924    51307.506    10.469628  0.076271577 
  992800   -10939.306    470.20012   -10469.106    909.86153    49983.999    10.469628   0.07439806 
  992850   -10934.929     461.3281     -10473.6    892.69372    50215.269    10.469628  0.073819911 
  992900   -10946.007    472.02797   -10473.979    913.39853    49333.955    10.469628     0.073781 
  992950       -10936    454.10859   -10481.892     878.7236      49810.6    10.469628   0.07637941 
  993000   -10937.725    462.52039   -10475.205    895.00087    49820.015    10.469628  0.078201249 
  993050   -10925.779    463.56722   -10462.211    897.02654    50998.019    10.469628  0.079603964 
  993100   -10928.581    468.62613   -10459.955    906.81579    50792.419    10.469628  0.079840805 
  993150   -10928.142    466.44324   -10461.699    902.59179    50696.071    10.469628  0.079233081 
  993200   -10931.821    462.20459   -10469.617    894.38978     50385.58    10.469628   0.07801908 
  993250   -10944.254    463.87878   -10480.376    897.62942    49306.223    10.469628  0.076677064 
  993300   -10944.035     460.9065   -10483.128    891.87791    49349.781    10.469628  0.076960853 
  993350   -10928.255    452.04724   -10476.208    874.73477    50567.927    10.469628  0.078523348 
  993400   -10938.308    469.72056   -10468.588    908.93357    49921.129    10.469628  0.077675583 
  993450   -10931.209    462.34502   -10468.864    894.66152    50658.746    10.469628  0.077271001 
  993500   -10937.922    471.12807   -10466.794    911.65718    50116.334    10.469628  0.076562923 
  993550    -10930.09     459.9528   -10470.137    890.03245    50549.217    10.469628  0.076764986 
  993600   -10935.581    467.56855   -10468.013    904.76931    50237.357    10.469628  0.075846049 
  993650   -10934.768    465.89844   -10468.869    901.53756    50379.423    10.469628  0.076035875 
  993700   -10935.201    461.21945   -10473.982    892.48347    50121.357    10.469628  0.076558295 
  993750    -10938.94    465.33461   -10473.605    900.44653    49892.379    10.469628  0.076432494 
  993800   -10934.657    463.35582   -10471.301    896.61746    50268.802    10.469628  0.077141329 
  993850   -10930.186     469.0219   -10461.164    907.58162    50578.061    10.469628  0.077462805 
  993900   -10926.691     468.8663   -10457.825    907.28052    51056.691    10.469628  0.077747404 
  993950   -10928.174    465.24751   -10462.926    900.27799    50865.527    10.469628  0.077351612 
  994000   -10933.456    459.57334   -10473.883    889.29816    50375.172    10.469628  0.075689716 
  994050   -10946.067    460.68562   -10485.381    891.45048    49183.415    10.469628  0.074178267 
  994100   -10941.975    459.08413   -10482.891    888.35152     49587.53    10.469628  0.074195119 
  994150   -10944.237    470.36853   -10473.868    910.18742     49446.46    10.469628  0.075254412 
  994200   -10927.742    456.60356   -10471.138    883.55149     50575.23    10.469628  0.078235653 
  994250   -10923.497    460.58029   -10462.916    891.24667    50991.069    10.469628    0.0788318 
  994300    -10935.75    476.00343   -10459.747    921.09125    50387.451    10.469628  0.077331899 
  994350   -10929.482     460.9544   -10468.528    891.97059    50672.637    10.469628  0.076996046 
  994400   -10934.181    462.77336   -10471.408    895.49037    50204.774    10.469628  0.075687003 
  994450   -10945.122    470.15645   -10474.966    909.77703     49349.74    10.469628  0.074825829 
  994500     -10934.1    443.30154   -10490.798    857.81139    49913.209    10.469628  0.075699242 
  994550   -10948.818    468.88604   -10479.932    907.31872    48954.523    10.469628  0.074276503 
  994600    -10939.47     463.1839   -10476.286     896.2848    49654.256    10.469628  0.075315042 
  994650   -10931.005     460.1542    -10470.85    890.42216    50369.463    10.469628  0.077398278 
  994700   -10924.979    468.11082   -10456.868    905.81864    51173.182    10.469628  0.078271724 
  994750   -10927.232    472.50143    -10454.73    914.31469    51069.353    10.469628  0.077502955 
  994800    -10929.26    466.74512   -10462.514    903.17593    50672.998    10.469628  0.076310202 
  994850   -10936.175    465.22466    -10470.95    900.23377    50122.239    10.469628  0.074915091 
  994900   -10943.354     466.1736    -10477.18    902.07001     49386.23    10.469628  0.074549251 
  994950   -10933.606    455.34734   -10478.259    881.12064     50216.06    10.469628  0.075518109 
  995000   -10939.613    468.54419   -10471.069    906.65723    49817.921    10.469628  0.075026847 
  995050   -10933.443    462.71986   -10470.723    895.38686     50352.52    10.469628  0.075226809 
  995100   -10931.238    462.40705   -10468.831    894.78155    50362.056    10.469628  0.075379593 
  995150   -10930.869    473.61815    -10457.25    916.47559     50642.92    10.469628  0.074297136 
  995200   -10933.374    478.16927   -10455.205    925.28225    50493.073    10.469628  0.073724222 
  995250   -10929.532    463.93907   -10465.593    897.74609    50663.406    10.469628  0.074889485 
  995300   -10934.664    465.81556   -10468.849     901.3772     50148.75    10.469628  0.075559151 
  995350   -10931.472    459.20103   -10472.271    888.57772    50286.534    10.469628   0.07632005 
  995400   -10937.099    470.78995   -10466.309    911.00289    50030.804    10.469628  0.075846262 
  995450   -10924.754    466.05189   -10458.702     901.8345     51206.23    10.469628  0.076286488 
  995500   -10925.991    476.10409   -10449.887    921.28602    51254.417    10.469628  0.076141022 
  995550   -10920.449      465.095   -10455.354    899.98287    51535.828    10.469628  0.075969549 
  995600   -10941.913    471.41491   -10470.498    912.21221    49691.696    10.469628  0.074107576 
  995650   -10936.256     458.1575   -10478.098    886.55844    50003.254    10.469628  0.073957209 
  995700   -10940.724    466.46554   -10474.258    902.63494    49699.793    10.469628  0.073851602 
  995750   -10932.247    463.98559   -10468.261    897.83611      50325.6    10.469628  0.074810957 
  995800   -10931.093    474.61199   -10456.481    918.39873    50683.615    10.469628  0.075767622 
  995850   -10924.033    470.57853   -10453.454    910.59378    51325.155    10.469628  0.077706792 
  995900   -10926.071    459.36087    -10466.71    888.88702    50829.816    10.469628  0.078626514 
  995950   -10934.739    460.06095   -10474.678    890.24173    50107.543    10.469628  0.077607053 
  996000   -10940.637    466.47435   -10474.163    902.65198    49673.179    10.469628  0.076233408 
  996050   -10937.228    468.76901   -10468.459    907.09227     50057.32    10.469628  0.075895849 
  996100   -10930.336    470.15784   -10460.178    909.77972    50703.534    10.469628  0.077129261 
  996150   -10926.713    468.05752   -10458.656    905.71549    50908.158    10.469628  0.078542495 
  996200   -10917.907    457.28846   -10460.619    884.87681    51558.599    10.469628  0.078478497 
  996250   -10935.348    479.03609   -10456.312    926.95959    50330.212    10.469628  0.075345876 
  996300   -10937.769     467.0859   -10470.683    903.83536    49972.522    10.469628  0.074020641 
  996350   -10937.791     459.3161   -10478.475    888.80039    49899.041    10.469628  0.073829431 
  996400   -10938.407    464.49047   -10473.917    898.81307    49953.599    10.469628    0.0735409 
  996450   -10933.595    467.96517    -10465.63    905.53679    50411.422    10.469628  0.073944739 
  996500   -10929.729    469.76856   -10459.961    909.02644    50802.478    10.469628  0.074904678 
  996550   -10928.814    475.06069   -10453.753      919.267    50763.364    10.469628  0.075578501 
  996600   -10925.851    465.22705   -10460.624    900.23839    51176.982    10.469628  0.076953515 
  996650   -10933.828    465.09673   -10468.732    899.98622    50342.896    10.469628   0.07739254 
  996700   -10933.654    459.35274   -10474.301     888.8713    50254.031    10.469628  0.077681577 
  996750   -10933.588    462.88624   -10470.702    895.70881    50312.573    10.469628  0.077108457 
  996800   -10926.809    469.01719   -10457.792     907.5725    51089.827    10.469628  0.075841924 
  996850   -10930.862    470.20387   -10460.658     909.8688    50705.354    10.469628  0.075173614 
  996900   -10927.371    464.24944   -10463.122    898.34666    50861.973    10.469628  0.073787511 
  996950   -10940.789    473.24856    -10467.54    915.76043    49678.763    10.469628  0.071362792 
  997000   -10938.705    463.13421   -10475.571    896.18864     49974.49    10.469628   0.07154088 
  997050   -10938.977    462.23694    -10476.74    894.45238    49792.401    10.469628  0.072990226 
  997100   -10933.209    462.68739   -10470.522    895.32402    50492.778    10.469628  0.074722304 
  997150   -10929.781    469.31844   -10460.463    908.15544    50707.621    10.469628  0.076034037 
  997200   -10924.473    464.68547   -10459.787    899.19041    51235.377    10.469628  0.077142806 
  997250   -10931.785    469.86217   -10461.923    909.20758    50521.761    10.469628   0.07689874 
  997300   -10928.514    462.71817   -10465.796    895.38357    50776.306    10.469628  0.076455296 
  997350   -10938.799    470.92925    -10467.87    911.27244    50023.798    10.469628  0.075286451 
  997400   -10930.126    457.57672   -10472.549    885.43461    50510.464    10.469628  0.075426638 
  997450    -10940.18     471.4932   -10468.687    912.36372    49845.003    10.469628  0.074332568 
  997500   -10930.902    459.63327   -10471.269    889.41414    50498.426    10.469628  0.074598067 
  997550   -10937.857    467.34991   -10470.507    904.34623     50005.76    10.469628  0.073724234 
  997600   -10935.271    463.66365   -10471.608    897.21313     50219.69    10.469628  0.074307899 
  997650   -10929.153    458.84729   -10470.305    887.89322    50639.891    10.469628  0.074824697 
  997700   -10930.622    470.70367   -10459.918    910.83593    50678.202    10.469628  0.073814034 
  997750   -10932.041    470.57207   -10461.469    910.58128    50574.329    10.469628  0.073439619 
  997800   -10939.021    462.13436   -10476.887    894.25389    49773.823    10.469628  0.073684305 
  997850   -10935.926    455.43739   -10480.488    881.29489    49920.156    10.469628  0.074521183 
  997900    -10937.07    466.81116   -10470.258    903.30372    50107.353    10.469628    0.0741719 
  997950    -10937.97    471.05585   -10466.915    911.51742    50051.308    10.469628  0.074688276 
  998000   -10929.588    457.03284   -10472.555    884.38218    50647.351    10.469628  0.076661141 
  998050   -10927.165    461.37675   -10465.788    892.78787    51003.188    10.469628  0.077163422 
  998100   -10928.542    476.87426   -10451.668    922.77635    51026.808    10.469628  0.076697804 
  998150   -10920.645    463.40254   -10457.242    896.70788    51498.719    10.469628  0.076620834 
  998200   -10935.077    469.21136   -10465.866    907.94823    50286.478    10.469628  0.074970682 
  998250   -10937.299    462.70602   -10474.593    895.36007    49928.414    10.469628  0.073954721 
  998300   -10936.818     462.2042   -10474.614    894.38903    50012.469    10.469628  0.073086188 
  998350   -10944.244     471.5778   -10472.666    912.52742    49463.475    10.469628  0.072732807 
  998400   -10927.632    452.04044   -10475.592    874.72162        50653    10.469628  0.074172837 
  998450   -10937.394    478.11161   -10459.283    925.17069    50216.489    10.469628  0.073765879 
  998500   -10925.342    465.47599   -10459.866    900.72011     51253.99    10.469628  0.075009891 
  998550    -10933.37    466.46328   -10466.907    902.63056    50394.242    10.469628    0.0754978 
  998600   -10933.753    457.65553   -10476.098    885.58711    50369.464    10.469628  0.075606192 
  998650   -10936.622    467.90506   -10468.717    905.42048    50200.837    10.469628  0.074339615 
  998700   -10929.396    474.29297   -10455.103    917.78142    50952.372    10.469628  0.074449459 
  998750   -10918.987    460.89498   -10458.092    891.85561    51555.383    10.469628  0.075476131 
  998800   -10936.163    476.98873   -10459.174    922.99784    50372.768    10.469628  0.073876326 
  998850   -10933.378    462.19057   -10471.188    894.36265     50412.41    10.469628  0.073847508 
  998900   -10937.194     464.6243    -10472.57    899.07205    50221.927    10.469628  0.073953627 
  998950   -10932.354    463.62851   -10468.725    897.14513    50527.569    10.469628  0.073942003 
  999000    -10938.28    472.78401   -10465.496    914.86151    49968.911    10.469628  0.074099751 
  999050   -10928.141    453.33915   -10474.802    877.23468    50498.037    10.469628  0.075376018 
  999100   -10941.129    474.77236   -10466.357    918.70906    49824.913    10.469628  0.073728028 
  999150   -10926.309    468.46579   -10457.843    906.50552    51240.126    10.469628  0.074252649 
  999200   -10925.993     466.9118   -10459.081    903.49846    51162.765    10.469628  0.074735508 
  999250   -10934.854    463.77474    -10471.08    897.42809    50180.159    10.469628  0.074056392 
  999300   -10941.868    460.01666   -10481.851    890.15602    49400.552    10.469628  0.073554626 
  999350    -10939.94    460.39079    -10479.55    890.87999    49826.512    10.469628   0.07358077 
  999400   -10938.757    467.43222   -10471.325    904.50551    50039.631    10.469628  0.074193135 
  999450   -10929.435    463.06278   -10466.372    896.05043    50728.745    10.469628   0.07561224 
  999500   -10934.334    470.75162   -10463.582    910.92872    50309.077    10.469628   0.07627167 
  999550   -10927.624    463.81093   -10463.813    897.49813    50785.607    10.469628   0.07691094 
  999600   -10930.116    466.44589    -10463.67    902.59691    50795.739    10.469628   0.07605374 
  999650   -10937.146    469.29755   -10467.848    908.11502    50130.403    10.469628   0.07490426 
  999700   -10937.786    458.45289   -10479.334    887.13005    49769.568    10.469628  0.074370914 
  999750   -10944.049    460.49701   -10483.552    891.08552    49178.728    10.469628  0.074036958 
  999800   -10931.882    459.24256    -10472.64    888.65809    50411.224    10.469628  0.074270282 
  999850   -10932.801    471.30626   -10461.494    912.00197    50534.749    10.469628  0.073961288 
  999900    -10928.55    461.29857   -10467.251    892.63658    50680.263    10.469628  0.074702586 
  999950   -10935.623    467.27508   -10468.348    904.20144    50164.672    10.469628  0.073894669 
 1000000    -10939.91    469.04969    -10470.86    907.63539    49749.522    10.469628  0.073306397 
Loop time of 1117.63 on 32 procs for 1000000 steps with 3999 atoms

Performance: 77.306 ns/day, 0.310 hours/ns, 894.750 timesteps/s
70.9% CPU use with 32 MPI tasks x no OpenMP threads

MPI task timing breakdown:
Section |  min time  |  avg time  |  max time  |%varavg| %total
---------------------------------------------------------------
Pair    | 442.18     | 589.25     | 920.37     | 797.0 | 52.72
Neigh   | 3.5079     | 4.6959     | 7.4983     |  72.8 |  0.42
Comm    | 95.796     | 146.35     | 253.37     | 439.4 | 13.10
Output  | 5.6706     | 7.4718     | 11.444     |  90.3 |  0.67
Modify  | 267.76     | 354.26     | 549.83     | 630.5 | 31.70
Other   |            | 15.59      |            |       |  1.40

Nlocal:    124.969 ave 139 max 115 min
Histogram: 5 2 4 0 7 8 4 1 0 1
Nghost:    1098.78 ave 1109 max 1085 min
Histogram: 1 0 2 4 4 10 0 4 2 5
Neighs:    6283.59 ave 7058 max 5517 min
Histogram: 3 1 1 7 4 4 5 3 3 1

Total # of neighbors = 201075
Ave neighs/atom = 50.2813
Neighbor list builds = 8651
Dangerous builds = 0
Total wall time: 0:14:15
