LAMMPS (11 Aug 2017)

# ---------- Initialize simulation ---------------------
units metal
atom_style atomic
dimension  3
boundary   p p p
read_data /Users/simonbatzner1/Desktop/Research/Research_Code/ML-electron-density/EAM/lammps.data
  orthogonal box = (0 0 0) to (31.8198 27.5568 44.8827)
  1 by 1 by 1 MPI processor grid
  reading atoms ...
  1001 atoms
pair_style eam
pair_coeff * * /usr/local/Cellar/lammps/2017-08-11_4/bin/pots/Pd_u3.eam
Reading potential file /usr/local/Cellar/lammps/2017-08-11_4/bin/pots/Pd_u3.eam with DATE: 2007-06-11
velocity  all create 900 87287 dist gaussian

# ---------- Describe computed properties------------------
compute msdall all msd
thermo_style custom step pe ke etotal temp press density c_msdall[4]
thermo 100

# ---------- Specify ensemble  ---------------------
fix  1 all nve
#fix  1 all nvt temp 900 900 0.05

# --------- Compute RDF ---------------
compute rdfall all rdf 100 1 1
fix 2 all ave/time 1 2500 2500 c_rdfall[*] file /Users/simonbatzner1/Desktop/Research/Research_Code/ML-electron-density/EAM/lammps.rdf mode vector

# --------- Run -------------
timestep 0.001
run 10000
Neighbor list info ...
  update every 1 steps, delay 10 steps, check yes
  max neighbors/atom: 2000, page size: 100000
  master list distance cutoff = 7.3
  ghost atom cutoff = 7.3
  binsize = 3.65, bins = 9 8 13
  2 neighbor lists, perpetual/occasional/extra = 1 1 0
  (1) pair eam, perpetual
      attributes: half, newton on
      pair build: half/bin/atomonly/newton
      stencil: half/bin/3d/newton
      bin: standard
  (2) compute rdf, occasional, copy from (1)
      attributes: half, newton on
      pair build: copy
      stencil: none
      bin: none
Per MPI rank memory allocation (min/avg/max) = 3.396 | 3.396 | 3.396 Mbytes
Step PotEng KinEng TotEng Temp Press Density c_msdall[4] 
       0   -2747.3563    116.33413   -2631.0222          900   -138082.19    4.4938675            0 
     100   -2909.0272    277.98096   -2631.0462    2150.5543   -71362.171    4.4938675   0.32160018 
     200   -3014.7593    383.71252   -2631.0468    2968.5292    -18633.41    4.4938675     1.121568 
     300   -3066.2771    435.22724   -2631.0499    3367.0644   -7757.3127    4.4938675    2.2545003 
     400   -3104.2998    473.24788    -2631.052    3661.2049    1595.1305    4.4938675     3.821677 
     500   -3123.2259    492.17005   -2631.0559    3807.5932    18928.855    4.4938675    5.7502171 
     600   -3138.8204    507.75799   -2631.0624    3928.1868    34687.169    4.4938675    7.7386861 
     700   -3131.0399    499.97758   -2631.0623    3867.9948    46881.072    4.4938675    9.2707226 
     800   -3147.7082    516.64529   -2631.0629    3996.9419    37285.218    4.4938675    10.122314 
     900   -3139.3407    508.28348   -2631.0572    3932.2521    19721.799    4.4938675    10.470353 
    1000   -3117.5308    486.47637   -2631.0544     3763.545    672.06381    4.4938675    10.613523 
    1100   -3082.5026     451.4496    -2631.053    3492.5661   -13096.429    4.4938675    11.090004 
    1200   -3037.6697    406.62082   -2631.0489    3145.7556   -18479.212    4.4938675    11.998685 
    1300   -3018.5857    387.53586   -2631.0498    2998.1079   -20328.814    4.4938675    13.080008 
    1400   -3011.9502    380.90034   -2631.0499    2946.7733   -20032.456    4.4938675    14.383471 
    1500    -3004.421    373.37445   -2631.0465    2888.5505   -15510.283    4.4938675    15.582424 
    1600   -3019.5112    388.46212    -2631.049    3005.2737   -15488.924    4.4938675    16.874452 
    1700   -3019.1924    388.13965   -2631.0528     3002.779   -12789.793    4.4938675    18.295559 
    1800   -3039.6231    408.56878   -2631.0543    3160.8257   -8055.8046    4.4938675     19.60588 
    1900   -3054.1137    423.05806   -2631.0557    3272.9196   -7863.8858    4.4938675    21.028484 
    2000   -3057.2605    426.20188   -2631.0586    3297.2413   -5739.4558    4.4938675    22.493665 
    2100   -3073.4148    442.35619   -2631.0586    3422.2164   -4285.9204    4.4938675     23.99485 
    2200   -3079.6843     448.6248   -2631.0595    3470.7125    2771.6222    4.4938675    25.500879 
    2300   -3073.5228    442.46468   -2631.0581    3423.0557    3955.7457    4.4938675    26.976648 
    2400   -3077.5843     446.5243     -2631.06    3454.4623    2572.2162    4.4938675    28.250226 
    2500   -3091.2855    460.22432   -2631.0612    3560.4503    2295.3802    4.4938675    29.613673 
    2600   -3074.5357      443.475   -2631.0607    3430.8719    4776.2599    4.4938675    31.096777 
    2700   -3079.4385    448.38016   -2631.0584    3468.8199    3249.2069    4.4938675    32.460884 
    2800   -3085.7978    454.73773   -2631.0601    3518.0041   -1187.4451    4.4938675      33.7389 
    2900   -3071.4038     440.3419   -2631.0619    3406.6332    4356.8342    4.4938675    34.607488 
    3000   -3078.9876    447.92616   -2631.0615    3465.3076    566.73775    4.4938675    35.786149 
    3100   -3072.6053    441.54679   -2631.0585    3415.9546   -3918.6571    4.4938675    36.900671 
    3200   -3071.8686     440.8104   -2631.0582    3410.2577   -4285.5361    4.4938675    37.913618 
    3300   -3071.2703    440.21048   -2631.0598    3405.6165   -6825.1304    4.4938675    39.037711 
    3400   -3067.8205    436.76116   -2631.0593    3378.9314   -5043.0688    4.4938675    40.518974 
    3500   -3064.5919    433.53129   -2631.0606     3353.944   -4881.9379    4.4938675     41.81425 
    3600   -3070.6391    439.58193   -2631.0572    3400.7538   -4750.0971    4.4938675    42.747684 
    3700   -3071.5441    440.48224   -2631.0618    3407.7189    -3749.284    4.4938675    43.958616 
    3800   -3066.6554    435.59768   -2631.0577    3369.9303   -2816.7911    4.4938675     45.07693 
    3900   -3078.4833    447.42277   -2631.0605    3461.4132   -2421.1694    4.4938675    46.490979 
    4000   -3072.8858    441.82731   -2631.0585    3418.1248    191.44114    4.4938675    47.685881 
    4100    -3072.855    441.79876   -2631.0562    3417.9039    902.97021    4.4938675    48.532693 
    4200   -3084.7745    453.71444     -2631.06    3510.0877   -2595.9936    4.4938675    49.813938 
    4300   -3085.4911    454.43142   -2631.0596    3515.6345   -2828.8431    4.4938675    50.758305 
    4400   -3074.9906    443.93026   -2631.0604    3434.3939   -3027.3961    4.4938675    51.769906 
    4500   -3077.3097    446.25062   -2631.0591     3452.345   -2414.8408    4.4938675    52.697207 
    4600   -3071.1326    440.07381   -2631.0588    3404.5592   -6485.8479    4.4938675    54.053456 
    4700   -3071.1864    440.12822   -2631.0582    3404.9801   -3923.9038    4.4938675    55.324658 
    4800    -3073.315    442.25533   -2631.0596    3421.4361    -2929.195    4.4938675     56.54524 
    4900   -3073.1103    442.05278   -2631.0575    3419.8692   -4798.9034    4.4938675    57.901233 
    5000   -3075.2449    444.18905   -2631.0559    3436.3961   -4535.3795    4.4938675    59.190861 
    5100   -3075.9773    444.92028   -2631.0571    3442.0531   -3768.2626    4.4938675     60.53275 
    5200    -3072.388    441.32913   -2631.0589    3414.2707   -883.98762    4.4938675    61.737128 
    5300   -3077.8205    446.76221   -2631.0583    3456.3029   -606.63147    4.4938675    62.885119 
    5400    -3078.055    446.99651   -2631.0584    3458.1155   -2288.5987    4.4938675    64.111491 
    5500   -3071.4349    440.37822   -2631.0567    3406.9142    2100.8319    4.4938675     65.45686 
    5600   -3074.5303     443.4744   -2631.0559    3430.8672    3229.0916    4.4938675    66.986682 
    5700   -3086.5211    455.45763   -2631.0634    3523.5736    3009.9123    4.4938675     68.09221 
    5800    -3081.384    450.31946   -2631.0645    3483.8229    761.32666    4.4938675    68.847841 
    5900   -3066.3138    435.25307   -2631.0607    3367.2643    868.28735    4.4938675    69.842758 
    6000    -3076.171    445.10987   -2631.0612    3443.5198   -2630.2637    4.4938675     70.94951 
    6100   -3075.3093    444.24717   -2631.0622    3436.8457     -2798.83    4.4938675     71.91101 
    6200   -3085.0779    454.01189    -2631.066    3512.3888   -4527.8579    4.4938675    72.756573 
    6300   -3054.0447    422.98625   -2631.0585    3272.3641   -3542.7713    4.4938675    73.846202 
    6400   -3070.9359    439.87373   -2631.0622    3403.0112   -5075.2712    4.4938675    75.023037 
    6500   -3065.7259    434.66682   -2631.0591    3362.7289   -1865.0631    4.4938675    75.814884 
    6600   -3063.9726      432.913   -2631.0596    3349.1607   -1740.6965    4.4938675    76.657914 
    6700   -3068.9718    437.91511   -2631.0567    3387.8587    -4649.981    4.4938675    77.740991 
    6800   -3066.5929    435.53555   -2631.0574    3369.4496   -1881.8827    4.4938675     78.74436 
    6900   -3071.8415      440.783   -2631.0585    3410.0457   -4927.6727    4.4938675    79.856831 
    7000   -3055.3216    424.26691   -2631.0547    3282.2717   -1486.3213    4.4938675    80.564422 
    7100   -3071.6349    440.57946   -2631.0554     3408.471   -3736.9102    4.4938675    81.691373 
    7200   -3080.6035     449.5456   -2631.0579    3477.8361   -2782.4085    4.4938675    83.432274 
    7300   -3078.4469    447.38593    -2631.061    3461.1282   -2148.9873    4.4938675    84.806461 
    7400   -3074.1072     443.0514   -2631.0558    3427.5948   -499.64003    4.4938675    85.478532 
    7500    -3069.618    438.56321   -2631.0548    3392.8726    3557.5298    4.4938675    86.716388 
    7600   -3069.4334    438.37554   -2631.0579    3391.4208    -759.9042    4.4938675    87.920264 
    7700    -3080.437    449.38032   -2631.0566    3476.5574   -531.78219    4.4938675    89.222459 
    7800   -3084.0072    452.94955   -2631.0577    3504.1702    -160.9422    4.4938675    90.714895 
    7900   -3073.0006    441.94235   -2631.0582    3419.0148    1231.6144    4.4938675    92.051479 
    8000   -3070.2437    439.18797   -2631.0558     3397.706   -1996.5328    4.4938675    93.260911 
    8100   -3066.9297    435.87514   -2631.0546    3372.0769   -3409.9001    4.4938675    94.354332 
    8200   -3069.9254    438.87421   -2631.0512    3395.2786   -2418.4705    4.4938675    95.279455 
    8300   -3071.4663    440.41139   -2631.0549    3407.1708   -2608.3098    4.4938675    96.504074 
    8400   -3056.4756    425.42281   -2631.0527    3291.2141   -292.43976    4.4938675    98.041974 
    8500   -3073.8644    442.81271   -2631.0516    3425.7482   -3688.1645    4.4938675     99.09128 
    8600   -3065.5494    434.49503   -2631.0543    3361.3998   -965.05732    4.4938675    100.00225 
    8700   -3062.5465    431.49341    -2631.053    3338.1783   -1043.6792    4.4938675    101.07417 
    8800   -3089.4176    458.36259    -2631.055    3546.0473   -4695.5624    4.4938675    102.29539 
    8900   -3067.5383    436.48473   -2631.0535    3376.7928   -1553.0735    4.4938675    103.44724 
    9000   -3069.6694    438.61518   -2631.0542    3393.2747    1235.1898    4.4938675    105.03409 
    9100   -3097.9034    466.84826   -2631.0552    3611.6953   -2547.2839    4.4938675    106.13957 
    9200   -3065.0009    433.95126   -2631.0496     3357.193    4340.9627    4.4938675    107.24485 
    9300   -3075.3011    444.25029   -2631.0508    3436.8698   -1804.6085    4.4938675    108.63386 
    9400   -3074.6005    443.54851    -2631.052    3431.4406   -2985.3534    4.4938675    110.04474 
    9500   -3075.7646    444.71196   -2631.0527    3440.4415   -2018.3349    4.4938675    111.11043 
    9600    -3072.107    441.05256   -2631.0544    3412.1311   -2150.3326    4.4938675    112.33161 
    9700   -3078.3484    447.29818   -2631.0502    3460.4493   -3048.9424    4.4938675    113.48765 
    9800   -3066.7824    435.73029   -2631.0521    3370.9562   -627.83528    4.4938675    114.89349 
    9900   -3064.4479    433.39743   -2631.0505    3352.9084   -782.51028    4.4938675    116.18959 
   10000   -3062.5674    431.51644    -2631.051    3338.3564   -2657.6082    4.4938675    117.50513 
Loop time of 23.4325 on 1 procs for 10000 steps with 1001 atoms

Performance: 36.872 ns/day, 0.651 hours/ns, 426.758 timesteps/s
95.7% CPU use with 1 MPI tasks x no OpenMP threads

MPI task timing breakdown:
Section |  min time  |  avg time  |  max time  |%varavg| %total
---------------------------------------------------------------
Pair    | 14.844     | 14.844     | 14.844     |   0.0 | 63.35
Neigh   | 0.36216    | 0.36216    | 0.36216    |   0.0 |  1.55
Comm    | 0.10539    | 0.10539    | 0.10539    |   0.0 |  0.45
Output  | 0.0030444  | 0.0030444  | 0.0030444  |   0.0 |  0.01
Modify  | 8.052      | 8.052      | 8.052      |   0.0 | 34.36
Other   |            | 0.06549    |            |       |  0.28

Nlocal:    1001 ave 1001 max 1001 min
Histogram: 1 0 0 0 0 0 0 0 0 0
Nghost:    1170 ave 1170 max 1170 min
Histogram: 1 0 0 0 0 0 0 0 0 0
Neighs:    37502 ave 37502 max 37502 min
Histogram: 1 0 0 0 0 0 0 0 0 0

Total # of neighbors = 37502
Ave neighs/atom = 37.4645
Neighbor list builds = 204
Dangerous builds = 0
Total wall time: 0:00:23
