LAMMPS (11 Aug 2017)

# ---------- Initialize simulation ---------------------
units metal
atom_style atomic
dimension  3
boundary   p p p
read_data /Users/simonbatzner1/Desktop/Research/Research_Code/ML-electron-density/EAM/lammps.data
  orthogonal box = (0 0 0) to (12.27 12.27 12.27)
  1 by 1 by 1 MPI processor grid
  reading atoms ...
  107 atoms
pair_style eam
pair_coeff * * /usr/local/Cellar/lammps/2017-08-11_4/bin/pots/Ag_u3.eam
Reading potential file /usr/local/Cellar/lammps/2017-08-11_4/bin/pots/Ag_u3.eam with DATE: 2007-06-11
velocity  all create 900 87287 dist gaussian

# ---------- Describe computed properties------------------
compute msdall all msd
thermo_style custom step pe ke etotal temp press density c_msdall[4]
thermo 100

# ---------- Specify ensemble  ---------------------
#fix  1 all nve
fix  1 all nvt temp 900 900 0.05

# --------- Compute RDF ---------------
compute rdfall all rdf 100 1 1
fix 2 all ave/time 1 2500 2500 c_rdfall[*] file /Users/simonbatzner1/Desktop/Research/Research_Code/ML-electron-density/EAM/lammps.rdf mode vector

# --------- Run -------------
timestep 0.001
run 10000
Neighbor list info ...
  update every 1 steps, delay 10 steps, check yes
  max neighbors/atom: 2000, page size: 100000
  master list distance cutoff = 7.55
  ghost atom cutoff = 7.55
  binsize = 3.775, bins = 4 4 4
  2 neighbor lists, perpetual/occasional/extra = 1 1 0
  (1) pair eam, perpetual
      attributes: half, newton on
      pair build: half/bin/atomonly/newton
      stencil: half/bin/3d/newton
      bin: standard
  (2) compute rdf, occasional, copy from (1)
      attributes: half, newton on
      pair build: copy
      stencil: none
      bin: none
Per MPI rank memory allocation (min/avg/max) = 3.349 | 3.349 | 3.349 Mbytes
Step PotEng KinEng TotEng Temp Press Density c_msdall[4] 
       0   -303.98319    12.331418   -291.65177          900    5453.4898     10.37528            0 
     100   -296.79061    8.3140768   -288.47653    606.79714    27833.692     10.37528  0.047822638 
     200   -295.05383    14.001634   -281.05219    1021.8996    36615.433     10.37528  0.048953989 
     300   -291.77586    15.540703   -276.23516    1134.2275    49004.808     10.37528  0.054241491 
     400   -292.84536    12.398026   -280.44733    904.86138    44542.882     10.37528   0.05916756 
     500   -292.49314    12.905199   -279.58794      941.877     45838.59     10.37528  0.050928262 
     600   -291.20156    10.647918   -280.55364    777.13093    48111.852     10.37528  0.059301023 
     700   -291.07936    12.072573   -279.00679     881.1084    51526.532     10.37528   0.06195235 
     800    -290.8215    11.734652   -279.08684    856.44544    50143.113     10.37528  0.062726292 
     900   -292.06798    10.421896   -281.64608    760.63484    46589.096     10.37528   0.06050607 
    1000   -290.00139    12.003882   -277.99751    876.09499    54217.297     10.37528   0.06171656 
    1100   -291.36938    11.262349   -280.10703    821.97474     49024.39     10.37528  0.059100626 
    1200   -290.87552     9.587195   -281.28832    699.71479     49423.39     10.37528  0.067083704 
    1300   -293.09857    13.771704   -279.32687    1005.1183    44692.513     10.37528  0.055582277 
    1400   -291.39412    10.979483   -280.41463       801.33    48356.217     10.37528  0.067702318 
    1500   -291.91668    13.053551   -278.86313    952.70442    47708.243     10.37528  0.059447867 
    1600   -291.38897    12.098725   -279.29025    883.01708     48832.92     10.37528  0.065213307 
    1700   -290.50512    10.914412   -279.59071    796.58079    51252.212     10.37528  0.064289766 
    1800   -292.99617    12.300505   -280.69566    897.74386    44243.101     10.37528  0.045689928 
    1900   -292.04357    11.789591   -280.25398    860.45514    47903.457     10.37528  0.049093883 
    2000   -289.35669    10.646053   -278.71063    776.99485    54625.511     10.37528  0.075110497 
    2100   -290.65458    13.440199   -277.21438    980.92366    52582.771     10.37528  0.067317124 
    2200    -292.7178    12.227543   -280.49026     892.4188     44756.81     10.37528  0.057916966 
    2300   -291.82999    13.095201   -278.73479    955.74417    46977.487     10.37528  0.061939632 
    2400   -291.20627    11.746511   -279.45976    857.31096     49089.95     10.37528  0.063409431 
    2500   -292.78641    12.577227   -280.20919     917.9402    44428.941     10.37528  0.053945229 
    2600   -291.25395    11.158382   -280.09557    814.38682    48342.696     10.37528  0.060104617 
    2700   -291.01954    13.169017   -277.85053    961.13156    51050.919     10.37528  0.054148153 
    2800   -291.81452    11.989953   -279.82457    875.07844    47863.866     10.37528  0.055620389 
    2900   -292.04386    11.555488   -280.48838    843.36927    44987.198     10.37528  0.056857382 
    3000   -291.63826    13.515115   -278.12315     986.3913    49956.035     10.37528  0.058314649 
    3100   -292.26458    12.547742   -279.71683    915.78824    44884.212     10.37528  0.061561613 
    3200   -292.45083    12.464431    -279.9864    909.70789    44216.177     10.37528  0.065044544 
    3300   -289.92025    14.261613   -275.65864     1040.874    54130.837     10.37528  0.074443118 
    3400   -289.92595    11.826949     -278.099    863.18171    54263.453     10.37528  0.074082998 
    3500   -292.51185    11.732511   -280.77934    856.28918    44139.616     10.37528  0.057763862 
    3600   -292.48474    12.761437    -279.7233    931.38468    44958.442     10.37528  0.055985104 
    3700    -291.3674    11.020698    -280.3467      804.338    47599.288     10.37528  0.071944442 
    3800   -291.64893    12.947492   -278.70143    944.96372    48747.468     10.37528  0.064268318 
    3900    -292.3638    11.504698    -280.8591    839.66243    44565.586     10.37528  0.064853513 
    4000   -291.87864    13.835479   -278.04316    1009.7728    48657.729     10.37528   0.06768387 
    4100   -289.85225    11.541445    -278.3108    842.34435     52669.22     10.37528  0.085595703 
    4200   -290.92448    11.825821   -279.09866    863.09933    49224.792     10.37528  0.075749768 
    4300   -292.80307    12.713237   -280.08984    927.86677    44488.017     10.37528   0.05715035 
    4400   -292.50132    12.239371   -280.26195    893.28202    44322.229     10.37528  0.059755093 
    4500   -290.41795    11.872554    -278.5454    866.51015    52364.007     10.37528  0.076812234 
    4600   -290.66694    14.253707   -276.41323    1040.2969    51581.429     10.37528  0.068195579 
    4700   -292.55398    12.716731   -279.83725    928.12179    44789.473     10.37528  0.056210559 
    4800   -293.06476    13.665524   -279.39923    997.36884    44687.105     10.37528  0.055289257 
    4900   -291.74801    13.994191   -277.75381    1021.3564    47044.009     10.37528  0.060957872 
    5000   -291.06958    12.451309   -278.61827    908.75019    49348.001     10.37528  0.068389742 
    5100   -292.34384    10.849859   -281.49398    791.86947        44902     10.37528  0.062160597 
    5200   -292.04658    13.395145   -278.65143    977.63542    46762.411     10.37528  0.059820709 
    5300   -290.87209    12.462307   -278.40978    909.55288    50230.032     10.37528  0.058771192 
    5400   -292.05025    10.421143   -281.62911    760.57989    45221.018     10.37528  0.061362479 
    5500   -290.77759    11.867725   -278.90986    866.15768    50210.391     10.37528  0.065452705 
    5600   -291.38646    12.126661    -279.2598    885.05595    48401.514     10.37528  0.067666946 
    5700    -293.9229    12.064826   -281.85808    880.54297    40004.676     10.37528   0.05492852 
    5800   -291.51851    10.789507   -280.72901    787.46469    45778.976     10.37528  0.067252446 
    5900   -292.50279    13.746453   -278.75633    1003.2754    47604.142     10.37528   0.06668392 
    6000   -291.40327    12.693622   -278.70965    926.43524    47223.086     10.37528  0.075891082 
    6100   -290.42605    11.202255   -279.22379    817.58882    50719.357     10.37528  0.074583113 
    6200   -292.99884    13.223333    -279.7755     965.0958    44488.551     10.37528  0.055258957 
    6300   -291.95392    10.510792   -281.44313    767.12289    44011.359     10.37528  0.072086277 
    6400   -292.60653    13.704391   -278.90214    1000.2055    44192.565     10.37528  0.070736107 
    6500    -292.0583    12.875879   -279.18242    939.73716    46269.742     10.37528  0.079001961 
    6600   -290.68325    13.542194   -277.14105    988.36768    50006.878     10.37528  0.081825463 
    6700   -290.07501     12.98071    -277.0943    947.38817    54213.733     10.37528  0.075878849 
    6800   -292.54184    12.263274   -280.27857    895.02654    44509.891     10.37528   0.06685111 
    6900   -292.13216    13.599406   -278.53276    992.54327    45929.708     10.37528  0.058961629 
    7000   -291.68782    12.615808   -279.07201      920.756    49226.373     10.37528  0.063584671 
    7100   -290.76933    11.123373   -279.64595     811.8317    49334.748     10.37528  0.071324987 
    7200   -289.78025    12.462582   -277.31767    909.57294    54830.913     10.37528  0.068481677 
    7300   -292.30752    10.911127    -281.3964    796.34104    44680.501     10.37528  0.066084427 
    7400   -291.79247    12.865741   -278.92673    938.99723     48122.13     10.37528  0.059053608 
    7500    -291.4343    11.347941   -280.08636    828.22164    47670.872     10.37528  0.070596673 
    7600   -291.71723    12.691001   -279.02623    926.24394    47154.425     10.37528  0.073834018 
    7700   -291.54633    13.252064   -278.29427    967.19274    47972.977     10.37528  0.067903695 
    7800    -291.9579    10.871109   -281.08679    793.42035    46105.482     10.37528   0.06672138 
    7900   -291.42985    12.401066   -279.02878    905.08321    50048.156     10.37528  0.063507592 
    8000   -290.37133    11.679959   -278.69137    852.45371    51466.461     10.37528  0.072218904 
    8100   -291.64278     12.11081   -279.53197    883.89911    47368.298     10.37528  0.071883262 
    8200   -291.48568    11.953913   -279.53176    872.44804    47831.551     10.37528  0.071417106 
    8300   -291.77818    13.571026   -278.20715    990.47192     48363.48     10.37528  0.069473028 
    8400   -291.33392    11.033706   -280.30022    805.28741    46600.233     10.37528  0.075248315 
    8500   -290.94988    11.321678   -279.62821    826.30482    48620.121     10.37528  0.070205097 
    8600    -291.4154    13.570609   -277.84479    990.44151    48785.563     10.37528  0.067469299 
    8700   -292.35283    12.433905   -279.91893    907.47999    45351.653     10.37528  0.063155164 
    8800   -292.69315    10.503992   -282.18916    766.62662     44397.44     10.37528  0.058061323 
    8900   -293.43404    12.378866   -281.05517    903.46296    41040.603     10.37528   0.05000036 
    9000   -290.63896    11.885418   -278.75354    867.44904    51856.761     10.37528  0.074279307 
    9100   -290.50575    13.483216   -277.02253    984.06322     52128.31     10.37528  0.069503432 
    9200   -291.59005    12.263673   -279.32638    895.05567    47842.378     10.37528  0.060748691 
    9300   -291.11079    10.298859   -280.81193    751.65512    49222.594     10.37528  0.069291275 
    9400   -291.81497    12.933095   -278.88188    943.91302    47293.673     10.37528  0.061896126 
    9500   -291.71323    12.244133    -279.4691    893.62957    47430.131     10.37528  0.069776339 
    9600   -289.04887    11.666056   -277.38281    851.43904    55971.574     10.37528  0.091613338 
    9700   -290.51802    14.358445   -276.15957    1047.9412    51198.577     10.37528  0.081374936 
    9800   -291.97172    12.296099   -279.67562    897.42231    46974.077     10.37528  0.061975502 
    9900   -292.81394    11.190575   -281.62337     816.7364    43419.468     10.37528  0.057469397 
   10000   -291.85961    12.946987   -278.91262    944.92687    46789.391     10.37528  0.063472055 
Loop time of 3.08478 on 1 procs for 10000 steps with 107 atoms

Performance: 280.085 ns/day, 0.086 hours/ns, 3241.722 timesteps/s
95.7% CPU use with 1 MPI tasks x no OpenMP threads

MPI task timing breakdown:
Section |  min time  |  avg time  |  max time  |%varavg| %total
---------------------------------------------------------------
Pair    | 2.0073     | 2.0073     | 2.0073     |   0.0 | 65.07
Neigh   | 0          | 0          | 0          |   0.0 |  0.00
Comm    | 0.050302   | 0.050302   | 0.050302   |   0.0 |  1.63
Output  | 0.0016696  | 0.0016696  | 0.0016696  |   0.0 |  0.05
Modify  | 1.0105     | 1.0105     | 1.0105     |   0.0 | 32.76
Other   |            | 0.01501    |            |       |  0.49

Nlocal:    107 ave 107 max 107 min
Histogram: 1 0 0 0 0 0 0 0 0 0
Nghost:    973 ave 973 max 973 min
Histogram: 1 0 0 0 0 0 0 0 0 0
Neighs:    4558 ave 4558 max 4558 min
Histogram: 1 0 0 0 0 0 0 0 0 0

Total # of neighbors = 4558
Ave neighs/atom = 42.5981
Neighbor list builds = 0
Dangerous builds = 0
Total wall time: 0:00:03
