Header of the LAMMPS data file 

64001 atoms 
2 atom types

0.0 109.93856528482524  xlo xhi
0.0 95.20959039227266  ylo yhi
0.0 107.96644945736459  zlo zhi

Masses 

2  106.42
1  1.008

Atoms # atomic 

1 1 0.00000 0.00000 10.00000 
2 1 2.74846 0.00000 10.00000 
3 1 5.49693 0.00000 10.00000 
4 1 8.24539 0.00000 10.00000 
5 1 10.99386 0.00000 10.00000 
6 1 13.74232 0.00000 10.00000 
7 1 16.49078 0.00000 10.00000 
8 1 19.23925 0.00000 10.00000 
9 1 21.98771 0.00000 10.00000 
10 1 24.73618 0.00000 10.00000 
11 1 27.48464 0.00000 10.00000 
12 1 30.23311 0.00000 10.00000 
13 1 32.98157 0.00000 10.00000 
14 1 35.73003 0.00000 10.00000 
15 1 38.47850 0.00000 10.00000 
16 1 41.22696 0.00000 10.00000 
17 1 43.97543 0.00000 10.00000 
18 1 46.72389 0.00000 10.00000 
19 1 49.47235 0.00000 10.00000 
20 1 52.22082 0.00000 10.00000 
21 1 54.96928 0.00000 10.00000 
22 1 57.71775 0.00000 10.00000 
23 1 60.46621 0.00000 10.00000 
24 1 63.21468 0.00000 10.00000 
25 1 65.96314 0.00000 10.00000 
26 1 68.71160 0.00000 10.00000 
27 1 71.46007 0.00000 10.00000 
28 1 74.20853 0.00000 10.00000 
29 1 76.95700 0.00000 10.00000 
30 1 79.70546 0.00000 10.00000 
31 1 82.45392 0.00000 10.00000 
32 1 85.20239 0.00000 10.00000 
33 1 87.95085 0.00000 10.00000 
34 1 90.69932 0.00000 10.00000 
35 1 93.44778 0.00000 10.00000 
36 1 96.19624 0.00000 10.00000 
37 1 98.94471 0.00000 10.00000 
38 1 101.69317 0.00000 10.00000 
39 1 104.44164 0.00000 10.00000 
40 1 107.19010 0.00000 10.00000 
41 1 1.37423 2.38024 10.00000 
42 1 4.12270 2.38024 10.00000 
43 1 6.87116 2.38024 10.00000 
44 1 9.61962 2.38024 10.00000 
45 1 12.36809 2.38024 10.00000 
46 1 15.11655 2.38024 10.00000 
47 1 17.86502 2.38024 10.00000 
48 1 20.61348 2.38024 10.00000 
49 1 23.36195 2.38024 10.00000 
50 1 26.11041 2.38024 10.00000 
51 1 28.85887 2.38024 10.00000 
52 1 31.60734 2.38024 10.00000 
53 1 34.35580 2.38024 10.00000 
54 1 37.10427 2.38024 10.00000 
55 1 39.85273 2.38024 10.00000 
56 1 42.60119 2.38024 10.00000 
57 1 45.34966 2.38024 10.00000 
58 1 48.09812 2.38024 10.00000 
59 1 50.84659 2.38024 10.00000 
60 1 53.59505 2.38024 10.00000 
61 1 56.34351 2.38024 10.00000 
62 1 59.09198 2.38024 10.00000 
63 1 61.84044 2.38024 10.00000 
64 1 64.58891 2.38024 10.00000 
65 1 67.33737 2.38024 10.00000 
66 1 70.08584 2.38024 10.00000 
67 1 72.83430 2.38024 10.00000 
68 1 75.58276 2.38024 10.00000 
69 1 78.33123 2.38024 10.00000 
70 1 81.07969 2.38024 10.00000 
71 1 83.82816 2.38024 10.00000 
72 1 86.57662 2.38024 10.00000 
73 1 89.32508 2.38024 10.00000 
74 1 92.07355 2.38024 10.00000 
75 1 94.82201 2.38024 10.00000 
76 1 97.57048 2.38024 10.00000 
77 1 100.31894 2.38024 10.00000 
78 1 103.06740 2.38024 10.00000 
79 1 105.81587 2.38024 10.00000 
80 1 108.56433 2.38024 10.00000 
81 1 2.74846 4.76048 10.00000 
82 1 5.49693 4.76048 10.00000 
83 1 8.24539 4.76048 10.00000 
84 1 10.99386 4.76048 10.00000 
85 1 13.74232 4.76048 10.00000 
86 1 16.49078 4.76048 10.00000 
87 1 19.23925 4.76048 10.00000 
88 1 21.98771 4.76048 10.00000 
89 1 24.73618 4.76048 10.00000 
90 1 27.48464 4.76048 10.00000 
91 1 30.23311 4.76048 10.00000 
92 1 32.98157 4.76048 10.00000 
93 1 35.73003 4.76048 10.00000 
94 1 38.47850 4.76048 10.00000 
95 1 41.22696 4.76048 10.00000 
96 1 43.97543 4.76048 10.00000 
97 1 46.72389 4.76048 10.00000 
98 1 49.47235 4.76048 10.00000 
99 1 52.22082 4.76048 10.00000 
100 1 54.96928 4.76048 10.00000 
101 1 57.71775 4.76048 10.00000 
102 1 60.46621 4.76048 10.00000 
103 1 63.21468 4.76048 10.00000 
104 1 65.96314 4.76048 10.00000 
105 1 68.71160 4.76048 10.00000 
106 1 71.46007 4.76048 10.00000 
107 1 74.20853 4.76048 10.00000 
108 1 76.95700 4.76048 10.00000 
109 1 79.70546 4.76048 10.00000 
110 1 82.45392 4.76048 10.00000 
111 1 85.20239 4.76048 10.00000 
112 1 87.95085 4.76048 10.00000 
113 1 90.69932 4.76048 10.00000 
114 1 93.44778 4.76048 10.00000 
115 1 96.19624 4.76048 10.00000 
116 1 98.94471 4.76048 10.00000 
117 1 101.69317 4.76048 10.00000 
118 1 104.44164 4.76048 10.00000 
119 1 107.19010 4.76048 10.00000 
120 1 0.00000 4.76048 10.00000 
121 1 4.12270 7.14072 10.00000 
122 1 6.87116 7.14072 10.00000 
123 1 9.61962 7.14072 10.00000 
124 1 12.36809 7.14072 10.00000 
125 1 15.11655 7.14072 10.00000 
126 1 17.86502 7.14072 10.00000 
127 1 20.61348 7.14072 10.00000 
128 1 23.36195 7.14072 10.00000 
129 1 26.11041 7.14072 10.00000 
130 1 28.85887 7.14072 10.00000 
131 1 31.60734 7.14072 10.00000 
132 1 34.35580 7.14072 10.00000 
133 1 37.10427 7.14072 10.00000 
134 1 39.85273 7.14072 10.00000 
135 1 42.60119 7.14072 10.00000 
136 1 45.34966 7.14072 10.00000 
137 1 48.09812 7.14072 10.00000 
138 1 50.84659 7.14072 10.00000 
139 1 53.59505 7.14072 10.00000 
140 1 56.34351 7.14072 10.00000 
141 1 59.09198 7.14072 10.00000 
142 1 61.84044 7.14072 10.00000 
143 1 64.58891 7.14072 10.00000 
144 1 67.33737 7.14072 10.00000 
145 1 70.08584 7.14072 10.00000 
146 1 72.83430 7.14072 10.00000 
147 1 75.58276 7.14072 10.00000 
148 1 78.33123 7.14072 10.00000 
149 1 81.07969 7.14072 10.00000 
150 1 83.82816 7.14072 10.00000 
151 1 86.57662 7.14072 10.00000 
152 1 89.32508 7.14072 10.00000 
153 1 92.07355 7.14072 10.00000 
154 1 94.82201 7.14072 10.00000 
155 1 97.57048 7.14072 10.00000 
156 1 100.31894 7.14072 10.00000 
157 1 103.06740 7.14072 10.00000 
158 1 105.81587 7.14072 10.00000 
159 1 108.56433 7.14072 10.00000 
160 1 1.37423 7.14072 10.00000 
161 1 5.49693 9.52096 10.00000 
162 1 8.24539 9.52096 10.00000 
163 1 10.99386 9.52096 10.00000 
164 1 13.74232 9.52096 10.00000 
165 1 16.49078 9.52096 10.00000 
166 1 19.23925 9.52096 10.00000 
167 1 21.98771 9.52096 10.00000 
168 1 24.73618 9.52096 10.00000 
169 1 27.48464 9.52096 10.00000 
170 1 30.23311 9.52096 10.00000 
171 1 32.98157 9.52096 10.00000 
172 1 35.73003 9.52096 10.00000 
173 1 38.47850 9.52096 10.00000 
174 1 41.22696 9.52096 10.00000 
175 1 43.97543 9.52096 10.00000 
176 1 46.72389 9.52096 10.00000 
177 1 49.47235 9.52096 10.00000 
178 1 52.22082 9.52096 10.00000 
179 1 54.96928 9.52096 10.00000 
180 1 57.71775 9.52096 10.00000 
181 1 60.46621 9.52096 10.00000 
182 1 63.21468 9.52096 10.00000 
183 1 65.96314 9.52096 10.00000 
184 1 68.71160 9.52096 10.00000 
185 1 71.46007 9.52096 10.00000 
186 1 74.20853 9.52096 10.00000 
187 1 76.95700 9.52096 10.00000 
188 1 79.70546 9.52096 10.00000 
189 1 82.45392 9.52096 10.00000 
190 1 85.20239 9.52096 10.00000 
191 1 87.95085 9.52096 10.00000 
192 1 90.69932 9.52096 10.00000 
193 1 93.44778 9.52096 10.00000 
194 1 96.19624 9.52096 10.00000 
195 1 98.94471 9.52096 10.00000 
196 1 101.69317 9.52096 10.00000 
197 1 104.44164 9.52096 10.00000 
198 1 107.19010 9.52096 10.00000 
199 1 0.00000 9.52096 10.00000 
200 1 2.74846 9.52096 10.00000 
201 1 6.87116 11.90120 10.00000 
202 1 9.61962 11.90120 10.00000 
203 1 12.36809 11.90120 10.00000 
204 1 15.11655 11.90120 10.00000 
205 1 17.86502 11.90120 10.00000 
206 1 20.61348 11.90120 10.00000 
207 1 23.36195 11.90120 10.00000 
208 1 26.11041 11.90120 10.00000 
209 1 28.85887 11.90120 10.00000 
210 1 31.60734 11.90120 10.00000 
211 1 34.35580 11.90120 10.00000 
212 1 37.10427 11.90120 10.00000 
213 1 39.85273 11.90120 10.00000 
214 1 42.60119 11.90120 10.00000 
215 1 45.34966 11.90120 10.00000 
216 1 48.09812 11.90120 10.00000 
217 1 50.84659 11.90120 10.00000 
218 1 53.59505 11.90120 10.00000 
219 1 56.34351 11.90120 10.00000 
220 1 59.09198 11.90120 10.00000 
221 1 61.84044 11.90120 10.00000 
222 1 64.58891 11.90120 10.00000 
223 1 67.33737 11.90120 10.00000 
224 1 70.08584 11.90120 10.00000 
225 1 72.83430 11.90120 10.00000 
226 1 75.58276 11.90120 10.00000 
227 1 78.33123 11.90120 10.00000 
228 1 81.07969 11.90120 10.00000 
229 1 83.82816 11.90120 10.00000 
230 1 86.57662 11.90120 10.00000 
231 1 89.32508 11.90120 10.00000 
232 1 92.07355 11.90120 10.00000 
233 1 94.82201 11.90120 10.00000 
234 1 97.57048 11.90120 10.00000 
235 1 100.31894 11.90120 10.00000 
236 1 103.06740 11.90120 10.00000 
237 1 105.81587 11.90120 10.00000 
238 1 108.56433 11.90120 10.00000 
239 1 1.37423 11.90120 10.00000 
240 1 4.12270 11.90120 10.00000 
241 1 8.24539 14.28144 10.00000 
242 1 10.99386 14.28144 10.00000 
243 1 13.74232 14.28144 10.00000 
244 1 16.49078 14.28144 10.00000 
245 1 19.23925 14.28144 10.00000 
246 1 21.98771 14.28144 10.00000 
247 1 24.73618 14.28144 10.00000 
248 1 27.48464 14.28144 10.00000 
249 1 30.23311 14.28144 10.00000 
250 1 32.98157 14.28144 10.00000 
251 1 35.73003 14.28144 10.00000 
252 1 38.47850 14.28144 10.00000 
253 1 41.22696 14.28144 10.00000 
254 1 43.97543 14.28144 10.00000 
255 1 46.72389 14.28144 10.00000 
256 1 49.47235 14.28144 10.00000 
257 1 52.22082 14.28144 10.00000 
258 1 54.96928 14.28144 10.00000 
259 1 57.71775 14.28144 10.00000 
260 1 60.46621 14.28144 10.00000 
261 1 63.21468 14.28144 10.00000 
262 1 65.96314 14.28144 10.00000 
263 1 68.71160 14.28144 10.00000 
264 1 71.46007 14.28144 10.00000 
265 1 74.20853 14.28144 10.00000 
266 1 76.95700 14.28144 10.00000 
267 1 79.70546 14.28144 10.00000 
268 1 82.45392 14.28144 10.00000 
269 1 85.20239 14.28144 10.00000 
270 1 87.95085 14.28144 10.00000 
271 1 90.69932 14.28144 10.00000 
272 1 93.44778 14.28144 10.00000 
273 1 96.19624 14.28144 10.00000 
274 1 98.94471 14.28144 10.00000 
275 1 101.69317 14.28144 10.00000 
276 1 104.44164 14.28144 10.00000 
277 1 107.19010 14.28144 10.00000 
278 1 0.00000 14.28144 10.00000 
279 1 2.74846 14.28144 10.00000 
280 1 5.49693 14.28144 10.00000 
281 1 9.61962 16.66168 10.00000 
282 1 12.36809 16.66168 10.00000 
283 1 15.11655 16.66168 10.00000 
284 1 17.86502 16.66168 10.00000 
285 1 20.61348 16.66168 10.00000 
286 1 23.36195 16.66168 10.00000 
287 1 26.11041 16.66168 10.00000 
288 1 28.85887 16.66168 10.00000 
289 1 31.60734 16.66168 10.00000 
290 1 34.35580 16.66168 10.00000 
291 1 37.10427 16.66168 10.00000 
292 1 39.85273 16.66168 10.00000 
293 1 42.60119 16.66168 10.00000 
294 1 45.34966 16.66168 10.00000 
295 1 48.09812 16.66168 10.00000 
296 1 50.84659 16.66168 10.00000 
297 1 53.59505 16.66168 10.00000 
298 1 56.34351 16.66168 10.00000 
299 1 59.09198 16.66168 10.00000 
300 1 61.84044 16.66168 10.00000 
301 1 64.58891 16.66168 10.00000 
302 1 67.33737 16.66168 10.00000 
303 1 70.08584 16.66168 10.00000 
304 1 72.83430 16.66168 10.00000 
305 1 75.58276 16.66168 10.00000 
306 1 78.33123 16.66168 10.00000 
307 1 81.07969 16.66168 10.00000 
308 1 83.82816 16.66168 10.00000 
309 1 86.57662 16.66168 10.00000 
310 1 89.32508 16.66168 10.00000 
311 1 92.07355 16.66168 10.00000 
312 1 94.82201 16.66168 10.00000 
313 1 97.57048 16.66168 10.00000 
314 1 100.31894 16.66168 10.00000 
315 1 103.06740 16.66168 10.00000 
316 1 105.81587 16.66168 10.00000 
317 1 108.56433 16.66168 10.00000 
318 1 1.37423 16.66168 10.00000 
319 1 4.12270 16.66168 10.00000 
320 1 6.87116 16.66168 10.00000 
321 1 10.99386 19.04192 10.00000 
322 1 13.74232 19.04192 10.00000 
323 1 16.49078 19.04192 10.00000 
324 1 19.23925 19.04192 10.00000 
325 1 21.98771 19.04192 10.00000 
326 1 24.73618 19.04192 10.00000 
327 1 27.48464 19.04192 10.00000 
328 1 30.23311 19.04192 10.00000 
329 1 32.98157 19.04192 10.00000 
330 1 35.73003 19.04192 10.00000 
331 1 38.47850 19.04192 10.00000 
332 1 41.22696 19.04192 10.00000 
333 1 43.97543 19.04192 10.00000 
334 1 46.72389 19.04192 10.00000 
335 1 49.47235 19.04192 10.00000 
336 1 52.22082 19.04192 10.00000 
337 1 54.96928 19.04192 10.00000 
338 1 57.71775 19.04192 10.00000 
339 1 60.46621 19.04192 10.00000 
340 1 63.21468 19.04192 10.00000 
341 1 65.96314 19.04192 10.00000 
342 1 68.71160 19.04192 10.00000 
343 1 71.46007 19.04192 10.00000 
344 1 74.20853 19.04192 10.00000 
345 1 76.95700 19.04192 10.00000 
346 1 79.70546 19.04192 10.00000 
347 1 82.45392 19.04192 10.00000 
348 1 85.20239 19.04192 10.00000 
349 1 87.95085 19.04192 10.00000 
350 1 90.69932 19.04192 10.00000 
351 1 93.44778 19.04192 10.00000 
352 1 96.19624 19.04192 10.00000 
353 1 98.94471 19.04192 10.00000 
354 1 101.69317 19.04192 10.00000 
355 1 104.44164 19.04192 10.00000 
356 1 107.19010 19.04192 10.00000 
357 1 0.00000 19.04192 10.00000 
358 1 2.74846 19.04192 10.00000 
359 1 5.49693 19.04192 10.00000 
360 1 8.24539 19.04192 10.00000 
361 1 12.36809 21.42216 10.00000 
362 1 15.11655 21.42216 10.00000 
363 1 17.86502 21.42216 10.00000 
364 1 20.61348 21.42216 10.00000 
365 1 23.36195 21.42216 10.00000 
366 1 26.11041 21.42216 10.00000 
367 1 28.85887 21.42216 10.00000 
368 1 31.60734 21.42216 10.00000 
369 1 34.35580 21.42216 10.00000 
370 1 37.10427 21.42216 10.00000 
371 1 39.85273 21.42216 10.00000 
372 1 42.60119 21.42216 10.00000 
373 1 45.34966 21.42216 10.00000 
374 1 48.09812 21.42216 10.00000 
375 1 50.84659 21.42216 10.00000 
376 1 53.59505 21.42216 10.00000 
377 1 56.34351 21.42216 10.00000 
378 1 59.09198 21.42216 10.00000 
379 1 61.84044 21.42216 10.00000 
380 1 64.58891 21.42216 10.00000 
381 1 67.33737 21.42216 10.00000 
382 1 70.08584 21.42216 10.00000 
383 1 72.83430 21.42216 10.00000 
384 1 75.58276 21.42216 10.00000 
385 1 78.33123 21.42216 10.00000 
386 1 81.07969 21.42216 10.00000 
387 1 83.82816 21.42216 10.00000 
388 1 86.57662 21.42216 10.00000 
389 1 89.32508 21.42216 10.00000 
390 1 92.07355 21.42216 10.00000 
391 1 94.82201 21.42216 10.00000 
392 1 97.57048 21.42216 10.00000 
393 1 100.31894 21.42216 10.00000 
394 1 103.06740 21.42216 10.00000 
395 1 105.81587 21.42216 10.00000 
396 1 108.56433 21.42216 10.00000 
397 1 1.37423 21.42216 10.00000 
398 1 4.12270 21.42216 10.00000 
399 1 6.87116 21.42216 10.00000 
400 1 9.61962 21.42216 10.00000 
401 1 13.74232 23.80240 10.00000 
402 1 16.49078 23.80240 10.00000 
403 1 19.23925 23.80240 10.00000 
404 1 21.98771 23.80240 10.00000 
405 1 24.73618 23.80240 10.00000 
406 1 27.48464 23.80240 10.00000 
407 1 30.23311 23.80240 10.00000 
408 1 32.98157 23.80240 10.00000 
409 1 35.73003 23.80240 10.00000 
410 1 38.47850 23.80240 10.00000 
411 1 41.22696 23.80240 10.00000 
412 1 43.97543 23.80240 10.00000 
413 1 46.72389 23.80240 10.00000 
414 1 49.47235 23.80240 10.00000 
415 1 52.22082 23.80240 10.00000 
416 1 54.96928 23.80240 10.00000 
417 1 57.71775 23.80240 10.00000 
418 1 60.46621 23.80240 10.00000 
419 1 63.21468 23.80240 10.00000 
420 1 65.96314 23.80240 10.00000 
421 1 68.71160 23.80240 10.00000 
422 1 71.46007 23.80240 10.00000 
423 1 74.20853 23.80240 10.00000 
424 1 76.95700 23.80240 10.00000 
425 1 79.70546 23.80240 10.00000 
426 1 82.45392 23.80240 10.00000 
427 1 85.20239 23.80240 10.00000 
428 1 87.95085 23.80240 10.00000 
429 1 90.69932 23.80240 10.00000 
430 1 93.44778 23.80240 10.00000 
431 1 96.19624 23.80240 10.00000 
432 1 98.94471 23.80240 10.00000 
433 1 101.69317 23.80240 10.00000 
434 1 104.44164 23.80240 10.00000 
435 1 107.19010 23.80240 10.00000 
436 1 0.00000 23.80240 10.00000 
437 1 2.74846 23.80240 10.00000 
438 1 5.49693 23.80240 10.00000 
439 1 8.24539 23.80240 10.00000 
440 1 10.99386 23.80240 10.00000 
441 1 15.11655 26.18264 10.00000 
442 1 17.86502 26.18264 10.00000 
443 1 20.61348 26.18264 10.00000 
444 1 23.36195 26.18264 10.00000 
445 1 26.11041 26.18264 10.00000 
446 1 28.85887 26.18264 10.00000 
447 1 31.60734 26.18264 10.00000 
448 1 34.35580 26.18264 10.00000 
449 1 37.10427 26.18264 10.00000 
450 1 39.85273 26.18264 10.00000 
451 1 42.60119 26.18264 10.00000 
452 1 45.34966 26.18264 10.00000 
453 1 48.09812 26.18264 10.00000 
454 1 50.84659 26.18264 10.00000 
455 1 53.59505 26.18264 10.00000 
456 1 56.34351 26.18264 10.00000 
457 1 59.09198 26.18264 10.00000 
458 1 61.84044 26.18264 10.00000 
459 1 64.58891 26.18264 10.00000 
460 1 67.33737 26.18264 10.00000 
461 1 70.08584 26.18264 10.00000 
462 1 72.83430 26.18264 10.00000 
463 1 75.58276 26.18264 10.00000 
464 1 78.33123 26.18264 10.00000 
465 1 81.07969 26.18264 10.00000 
466 1 83.82816 26.18264 10.00000 
467 1 86.57662 26.18264 10.00000 
468 1 89.32508 26.18264 10.00000 
469 1 92.07355 26.18264 10.00000 
470 1 94.82201 26.18264 10.00000 
471 1 97.57048 26.18264 10.00000 
472 1 100.31894 26.18264 10.00000 
473 1 103.06740 26.18264 10.00000 
474 1 105.81587 26.18264 10.00000 
475 1 108.56433 26.18264 10.00000 
476 1 1.37423 26.18264 10.00000 
477 1 4.12270 26.18264 10.00000 
478 1 6.87116 26.18264 10.00000 
479 1 9.61962 26.18264 10.00000 
480 1 12.36809 26.18264 10.00000 
481 1 16.49078 28.56288 10.00000 
482 1 19.23925 28.56288 10.00000 
483 1 21.98771 28.56288 10.00000 
484 1 24.73618 28.56288 10.00000 
485 1 27.48464 28.56288 10.00000 
486 1 30.23311 28.56288 10.00000 
487 1 32.98157 28.56288 10.00000 
488 1 35.73003 28.56288 10.00000 
489 1 38.47850 28.56288 10.00000 
490 1 41.22696 28.56288 10.00000 
491 1 43.97543 28.56288 10.00000 
492 1 46.72389 28.56288 10.00000 
493 1 49.47235 28.56288 10.00000 
494 1 52.22082 28.56288 10.00000 
495 1 54.96928 28.56288 10.00000 
496 1 57.71775 28.56288 10.00000 
497 1 60.46621 28.56288 10.00000 
498 1 63.21468 28.56288 10.00000 
499 1 65.96314 28.56288 10.00000 
500 1 68.71160 28.56288 10.00000 
501 1 71.46007 28.56288 10.00000 
502 1 74.20853 28.56288 10.00000 
503 1 76.95700 28.56288 10.00000 
504 1 79.70546 28.56288 10.00000 
505 1 82.45392 28.56288 10.00000 
506 1 85.20239 28.56288 10.00000 
507 1 87.95085 28.56288 10.00000 
508 1 90.69932 28.56288 10.00000 
509 1 93.44778 28.56288 10.00000 
510 1 96.19624 28.56288 10.00000 
511 1 98.94471 28.56288 10.00000 
512 1 101.69317 28.56288 10.00000 
513 1 104.44164 28.56288 10.00000 
514 1 107.19010 28.56288 10.00000 
515 1 0.00000 28.56288 10.00000 
516 1 2.74846 28.56288 10.00000 
517 1 5.49693 28.56288 10.00000 
518 1 8.24539 28.56288 10.00000 
519 1 10.99386 28.56288 10.00000 
520 1 13.74232 28.56288 10.00000 
521 1 17.86502 30.94312 10.00000 
522 1 20.61348 30.94312 10.00000 
523 1 23.36195 30.94312 10.00000 
524 1 26.11041 30.94312 10.00000 
525 1 28.85887 30.94312 10.00000 
526 1 31.60734 30.94312 10.00000 
527 1 34.35580 30.94312 10.00000 
528 1 37.10427 30.94312 10.00000 
529 1 39.85273 30.94312 10.00000 
530 1 42.60119 30.94312 10.00000 
531 1 45.34966 30.94312 10.00000 
532 1 48.09812 30.94312 10.00000 
533 1 50.84659 30.94312 10.00000 
534 1 53.59505 30.94312 10.00000 
535 1 56.34351 30.94312 10.00000 
536 1 59.09198 30.94312 10.00000 
537 1 61.84044 30.94312 10.00000 
538 1 64.58891 30.94312 10.00000 
539 1 67.33737 30.94312 10.00000 
540 1 70.08584 30.94312 10.00000 
541 1 72.83430 30.94312 10.00000 
542 1 75.58276 30.94312 10.00000 
543 1 78.33123 30.94312 10.00000 
544 1 81.07969 30.94312 10.00000 
545 1 83.82816 30.94312 10.00000 
546 1 86.57662 30.94312 10.00000 
547 1 89.32508 30.94312 10.00000 
548 1 92.07355 30.94312 10.00000 
549 1 94.82201 30.94312 10.00000 
550 1 97.57048 30.94312 10.00000 
551 1 100.31894 30.94312 10.00000 
552 1 103.06740 30.94312 10.00000 
553 1 105.81587 30.94312 10.00000 
554 1 108.56433 30.94312 10.00000 
555 1 1.37423 30.94312 10.00000 
556 1 4.12270 30.94312 10.00000 
557 1 6.87116 30.94312 10.00000 
558 1 9.61962 30.94312 10.00000 
559 1 12.36809 30.94312 10.00000 
560 1 15.11655 30.94312 10.00000 
561 1 19.23925 33.32336 10.00000 
562 1 21.98771 33.32336 10.00000 
563 1 24.73618 33.32336 10.00000 
564 1 27.48464 33.32336 10.00000 
565 1 30.23311 33.32336 10.00000 
566 1 32.98157 33.32336 10.00000 
567 1 35.73003 33.32336 10.00000 
568 1 38.47850 33.32336 10.00000 
569 1 41.22696 33.32336 10.00000 
570 1 43.97543 33.32336 10.00000 
571 1 46.72389 33.32336 10.00000 
572 1 49.47235 33.32336 10.00000 
573 1 52.22082 33.32336 10.00000 
574 1 54.96928 33.32336 10.00000 
575 1 57.71775 33.32336 10.00000 
576 1 60.46621 33.32336 10.00000 
577 1 63.21468 33.32336 10.00000 
578 1 65.96314 33.32336 10.00000 
579 1 68.71160 33.32336 10.00000 
580 1 71.46007 33.32336 10.00000 
581 1 74.20853 33.32336 10.00000 
582 1 76.95700 33.32336 10.00000 
583 1 79.70546 33.32336 10.00000 
584 1 82.45392 33.32336 10.00000 
585 1 85.20239 33.32336 10.00000 
586 1 87.95085 33.32336 10.00000 
587 1 90.69932 33.32336 10.00000 
588 1 93.44778 33.32336 10.00000 
589 1 96.19624 33.32336 10.00000 
590 1 98.94471 33.32336 10.00000 
591 1 101.69317 33.32336 10.00000 
592 1 104.44164 33.32336 10.00000 
593 1 107.19010 33.32336 10.00000 
594 1 0.00000 33.32336 10.00000 
595 1 2.74846 33.32336 10.00000 
596 1 5.49693 33.32336 10.00000 
597 1 8.24539 33.32336 10.00000 
598 1 10.99386 33.32336 10.00000 
599 1 13.74232 33.32336 10.00000 
600 1 16.49078 33.32336 10.00000 
601 1 20.61348 35.70360 10.00000 
602 1 23.36195 35.70360 10.00000 
603 1 26.11041 35.70360 10.00000 
604 1 28.85887 35.70360 10.00000 
605 1 31.60734 35.70360 10.00000 
606 1 34.35580 35.70360 10.00000 
607 1 37.10427 35.70360 10.00000 
608 1 39.85273 35.70360 10.00000 
609 1 42.60119 35.70360 10.00000 
610 1 45.34966 35.70360 10.00000 
611 1 48.09812 35.70360 10.00000 
612 1 50.84659 35.70360 10.00000 
613 1 53.59505 35.70360 10.00000 
614 1 56.34351 35.70360 10.00000 
615 1 59.09198 35.70360 10.00000 
616 1 61.84044 35.70360 10.00000 
617 1 64.58891 35.70360 10.00000 
618 1 67.33737 35.70360 10.00000 
619 1 70.08584 35.70360 10.00000 
620 1 72.83430 35.70360 10.00000 
621 1 75.58276 35.70360 10.00000 
622 1 78.33123 35.70360 10.00000 
623 1 81.07969 35.70360 10.00000 
624 1 83.82816 35.70360 10.00000 
625 1 86.57662 35.70360 10.00000 
626 1 89.32508 35.70360 10.00000 
627 1 92.07355 35.70360 10.00000 
628 1 94.82201 35.70360 10.00000 
629 1 97.57048 35.70360 10.00000 
630 1 100.31894 35.70360 10.00000 
631 1 103.06740 35.70360 10.00000 
632 1 105.81587 35.70360 10.00000 
633 1 108.56433 35.70360 10.00000 
634 1 1.37423 35.70360 10.00000 
635 1 4.12270 35.70360 10.00000 
636 1 6.87116 35.70360 10.00000 
637 1 9.61962 35.70360 10.00000 
638 1 12.36809 35.70360 10.00000 
639 1 15.11655 35.70360 10.00000 
640 1 17.86502 35.70360 10.00000 
641 1 21.98771 38.08384 10.00000 
642 1 24.73618 38.08384 10.00000 
643 1 27.48464 38.08384 10.00000 
644 1 30.23311 38.08384 10.00000 
645 1 32.98157 38.08384 10.00000 
646 1 35.73003 38.08384 10.00000 
647 1 38.47850 38.08384 10.00000 
648 1 41.22696 38.08384 10.00000 
649 1 43.97543 38.08384 10.00000 
650 1 46.72389 38.08384 10.00000 
651 1 49.47235 38.08384 10.00000 
652 1 52.22082 38.08384 10.00000 
653 1 54.96928 38.08384 10.00000 
654 1 57.71775 38.08384 10.00000 
655 1 60.46621 38.08384 10.00000 
656 1 63.21468 38.08384 10.00000 
657 1 65.96314 38.08384 10.00000 
658 1 68.71160 38.08384 10.00000 
659 1 71.46007 38.08384 10.00000 
660 1 74.20853 38.08384 10.00000 
661 1 76.95700 38.08384 10.00000 
662 1 79.70546 38.08384 10.00000 
663 1 82.45392 38.08384 10.00000 
664 1 85.20239 38.08384 10.00000 
665 1 87.95085 38.08384 10.00000 
666 1 90.69932 38.08384 10.00000 
667 1 93.44778 38.08384 10.00000 
668 1 96.19624 38.08384 10.00000 
669 1 98.94471 38.08384 10.00000 
670 1 101.69317 38.08384 10.00000 
671 1 104.44164 38.08384 10.00000 
672 1 107.19010 38.08384 10.00000 
673 1 0.00000 38.08384 10.00000 
674 1 2.74846 38.08384 10.00000 
675 1 5.49693 38.08384 10.00000 
676 1 8.24539 38.08384 10.00000 
677 1 10.99386 38.08384 10.00000 
678 1 13.74232 38.08384 10.00000 
679 1 16.49078 38.08384 10.00000 
680 1 19.23925 38.08384 10.00000 
681 1 23.36195 40.46408 10.00000 
682 1 26.11041 40.46408 10.00000 
683 1 28.85887 40.46408 10.00000 
684 1 31.60734 40.46408 10.00000 
685 1 34.35580 40.46408 10.00000 
686 1 37.10427 40.46408 10.00000 
687 1 39.85273 40.46408 10.00000 
688 1 42.60119 40.46408 10.00000 
689 1 45.34966 40.46408 10.00000 
690 1 48.09812 40.46408 10.00000 
691 1 50.84659 40.46408 10.00000 
692 1 53.59505 40.46408 10.00000 
693 1 56.34351 40.46408 10.00000 
694 1 59.09198 40.46408 10.00000 
695 1 61.84044 40.46408 10.00000 
696 1 64.58891 40.46408 10.00000 
697 1 67.33737 40.46408 10.00000 
698 1 70.08584 40.46408 10.00000 
699 1 72.83430 40.46408 10.00000 
700 1 75.58276 40.46408 10.00000 
701 1 78.33123 40.46408 10.00000 
702 1 81.07969 40.46408 10.00000 
703 1 83.82816 40.46408 10.00000 
704 1 86.57662 40.46408 10.00000 
705 1 89.32508 40.46408 10.00000 
706 1 92.07355 40.46408 10.00000 
707 1 94.82201 40.46408 10.00000 
708 1 97.57048 40.46408 10.00000 
709 1 100.31894 40.46408 10.00000 
710 1 103.06740 40.46408 10.00000 
711 1 105.81587 40.46408 10.00000 
712 1 108.56433 40.46408 10.00000 
713 1 1.37423 40.46408 10.00000 
714 1 4.12270 40.46408 10.00000 
715 1 6.87116 40.46408 10.00000 
716 1 9.61962 40.46408 10.00000 
717 1 12.36809 40.46408 10.00000 
718 1 15.11655 40.46408 10.00000 
719 1 17.86502 40.46408 10.00000 
720 1 20.61348 40.46408 10.00000 
721 1 24.73618 42.84432 10.00000 
722 1 27.48464 42.84432 10.00000 
723 1 30.23311 42.84432 10.00000 
724 1 32.98157 42.84432 10.00000 
725 1 35.73003 42.84432 10.00000 
726 1 38.47850 42.84432 10.00000 
727 1 41.22696 42.84432 10.00000 
728 1 43.97543 42.84432 10.00000 
729 1 46.72389 42.84432 10.00000 
730 1 49.47235 42.84432 10.00000 
731 1 52.22082 42.84432 10.00000 
732 1 54.96928 42.84432 10.00000 
733 1 57.71775 42.84432 10.00000 
734 1 60.46621 42.84432 10.00000 
735 1 63.21468 42.84432 10.00000 
736 1 65.96314 42.84432 10.00000 
737 1 68.71160 42.84432 10.00000 
738 1 71.46007 42.84432 10.00000 
739 1 74.20853 42.84432 10.00000 
740 1 76.95700 42.84432 10.00000 
741 1 79.70546 42.84432 10.00000 
742 1 82.45392 42.84432 10.00000 
743 1 85.20239 42.84432 10.00000 
744 1 87.95085 42.84432 10.00000 
745 1 90.69932 42.84432 10.00000 
746 1 93.44778 42.84432 10.00000 
747 1 96.19624 42.84432 10.00000 
748 1 98.94471 42.84432 10.00000 
749 1 101.69317 42.84432 10.00000 
750 1 104.44164 42.84432 10.00000 
751 1 107.19010 42.84432 10.00000 
752 1 0.00000 42.84432 10.00000 
753 1 2.74846 42.84432 10.00000 
754 1 5.49693 42.84432 10.00000 
755 1 8.24539 42.84432 10.00000 
756 1 10.99386 42.84432 10.00000 
757 1 13.74232 42.84432 10.00000 
758 1 16.49078 42.84432 10.00000 
759 1 19.23925 42.84432 10.00000 
760 1 21.98771 42.84432 10.00000 
761 1 26.11041 45.22456 10.00000 
762 1 28.85887 45.22456 10.00000 
763 1 31.60734 45.22456 10.00000 
764 1 34.35580 45.22456 10.00000 
765 1 37.10427 45.22456 10.00000 
766 1 39.85273 45.22456 10.00000 
767 1 42.60119 45.22456 10.00000 
768 1 45.34966 45.22456 10.00000 
769 1 48.09812 45.22456 10.00000 
770 1 50.84659 45.22456 10.00000 
771 1 53.59505 45.22456 10.00000 
772 1 56.34351 45.22456 10.00000 
773 1 59.09198 45.22456 10.00000 
774 1 61.84044 45.22456 10.00000 
775 1 64.58891 45.22456 10.00000 
776 1 67.33737 45.22456 10.00000 
777 1 70.08584 45.22456 10.00000 
778 1 72.83430 45.22456 10.00000 
779 1 75.58276 45.22456 10.00000 
780 1 78.33123 45.22456 10.00000 
781 1 81.07969 45.22456 10.00000 
782 1 83.82816 45.22456 10.00000 
783 1 86.57662 45.22456 10.00000 
784 1 89.32508 45.22456 10.00000 
785 1 92.07355 45.22456 10.00000 
786 1 94.82201 45.22456 10.00000 
787 1 97.57048 45.22456 10.00000 
788 1 100.31894 45.22456 10.00000 
789 1 103.06740 45.22456 10.00000 
790 1 105.81587 45.22456 10.00000 
791 1 108.56433 45.22456 10.00000 
792 1 1.37423 45.22456 10.00000 
793 1 4.12270 45.22456 10.00000 
794 1 6.87116 45.22456 10.00000 
795 1 9.61962 45.22456 10.00000 
796 1 12.36809 45.22456 10.00000 
797 1 15.11655 45.22456 10.00000 
798 1 17.86502 45.22456 10.00000 
799 1 20.61348 45.22456 10.00000 
800 1 23.36195 45.22456 10.00000 
801 1 27.48464 47.60480 10.00000 
802 1 30.23311 47.60480 10.00000 
803 1 32.98157 47.60480 10.00000 
804 1 35.73003 47.60480 10.00000 
805 1 38.47850 47.60480 10.00000 
806 1 41.22696 47.60480 10.00000 
807 1 43.97543 47.60480 10.00000 
808 1 46.72389 47.60480 10.00000 
809 1 49.47235 47.60480 10.00000 
810 1 52.22082 47.60480 10.00000 
811 1 54.96928 47.60480 10.00000 
812 1 57.71775 47.60480 10.00000 
813 1 60.46621 47.60480 10.00000 
814 1 63.21468 47.60480 10.00000 
815 1 65.96314 47.60480 10.00000 
816 1 68.71160 47.60480 10.00000 
817 1 71.46007 47.60480 10.00000 
818 1 74.20853 47.60480 10.00000 
819 1 76.95700 47.60480 10.00000 
820 1 79.70546 47.60480 10.00000 
821 1 82.45392 47.60480 10.00000 
822 1 85.20239 47.60480 10.00000 
823 1 87.95085 47.60480 10.00000 
824 1 90.69932 47.60480 10.00000 
825 1 93.44778 47.60480 10.00000 
826 1 96.19624 47.60480 10.00000 
827 1 98.94471 47.60480 10.00000 
828 1 101.69317 47.60480 10.00000 
829 1 104.44164 47.60480 10.00000 
830 1 107.19010 47.60480 10.00000 
831 1 0.00000 47.60480 10.00000 
832 1 2.74846 47.60480 10.00000 
833 1 5.49693 47.60480 10.00000 
834 1 8.24539 47.60480 10.00000 
835 1 10.99386 47.60480 10.00000 
836 1 13.74232 47.60480 10.00000 
837 1 16.49078 47.60480 10.00000 
838 1 19.23925 47.60480 10.00000 
839 1 21.98771 47.60480 10.00000 
840 1 24.73618 47.60480 10.00000 
841 1 28.85887 49.98503 10.00000 
842 1 31.60734 49.98503 10.00000 
843 1 34.35580 49.98503 10.00000 
844 1 37.10427 49.98503 10.00000 
845 1 39.85273 49.98503 10.00000 
846 1 42.60119 49.98503 10.00000 
847 1 45.34966 49.98503 10.00000 
848 1 48.09812 49.98503 10.00000 
849 1 50.84659 49.98503 10.00000 
850 1 53.59505 49.98503 10.00000 
851 1 56.34351 49.98503 10.00000 
852 1 59.09198 49.98503 10.00000 
853 1 61.84044 49.98503 10.00000 
854 1 64.58891 49.98503 10.00000 
855 1 67.33737 49.98503 10.00000 
856 1 70.08584 49.98503 10.00000 
857 1 72.83430 49.98503 10.00000 
858 1 75.58276 49.98503 10.00000 
859 1 78.33123 49.98503 10.00000 
860 1 81.07969 49.98503 10.00000 
861 1 83.82816 49.98503 10.00000 
862 1 86.57662 49.98503 10.00000 
863 1 89.32508 49.98503 10.00000 
864 1 92.07355 49.98503 10.00000 
865 1 94.82201 49.98503 10.00000 
866 1 97.57048 49.98503 10.00000 
867 1 100.31894 49.98503 10.00000 
868 1 103.06740 49.98503 10.00000 
869 1 105.81587 49.98503 10.00000 
870 1 108.56433 49.98503 10.00000 
871 1 1.37423 49.98503 10.00000 
872 1 4.12270 49.98503 10.00000 
873 1 6.87116 49.98503 10.00000 
874 1 9.61962 49.98503 10.00000 
875 1 12.36809 49.98503 10.00000 
876 1 15.11655 49.98503 10.00000 
877 1 17.86502 49.98503 10.00000 
878 1 20.61348 49.98503 10.00000 
879 1 23.36195 49.98503 10.00000 
880 1 26.11041 49.98503 10.00000 
881 1 30.23311 52.36527 10.00000 
882 1 32.98157 52.36527 10.00000 
883 1 35.73003 52.36527 10.00000 
884 1 38.47850 52.36527 10.00000 
885 1 41.22696 52.36527 10.00000 