Header of the LAMMPS data file 

27001 atoms 
1 atom types

0.0 95.45941546018393  xlo xhi
0.0 82.67027881893226  ylo yhi
0.0 96.84421012924618  zlo zhi

Masses 

1  106.42

Atoms # atomic 

1 1 1.59099 0.91856 10.00000 
2 1 4.77297 0.91856 10.00000 
3 1 7.95495 0.91856 10.00000 
4 1 11.13693 0.91856 10.00000 
5 1 14.31891 0.91856 10.00000 
6 1 17.50089 0.91856 10.00000 
7 1 20.68287 0.91856 10.00000 
8 1 23.86485 0.91856 10.00000 
9 1 27.04683 0.91856 10.00000 
10 1 30.22881 0.91856 10.00000 
11 1 33.41080 0.91856 10.00000 
12 1 36.59278 0.91856 10.00000 
13 1 39.77476 0.91856 10.00000 
14 1 42.95674 0.91856 10.00000 
15 1 46.13872 0.91856 10.00000 
16 1 49.32070 0.91856 10.00000 
17 1 52.50268 0.91856 10.00000 
18 1 55.68466 0.91856 10.00000 
19 1 58.86664 0.91856 10.00000 
20 1 62.04862 0.91856 10.00000 
21 1 65.23060 0.91856 10.00000 
22 1 68.41258 0.91856 10.00000 
23 1 71.59456 0.91856 10.00000 
24 1 74.77654 0.91856 10.00000 
25 1 77.95852 0.91856 10.00000 
26 1 81.14050 0.91856 10.00000 
27 1 84.32248 0.91856 10.00000 
28 1 87.50446 0.91856 10.00000 
29 1 90.68644 0.91856 10.00000 
30 1 93.86843 0.91856 10.00000 
31 1 3.18198 3.67423 10.00000 
32 1 6.36396 3.67423 10.00000 
33 1 9.54594 3.67423 10.00000 
34 1 12.72792 3.67423 10.00000 
35 1 15.90990 3.67423 10.00000 
36 1 19.09188 3.67423 10.00000 
37 1 22.27386 3.67423 10.00000 
38 1 25.45584 3.67423 10.00000 
39 1 28.63782 3.67423 10.00000 
40 1 31.81981 3.67423 10.00000 
41 1 35.00179 3.67423 10.00000 
42 1 38.18377 3.67423 10.00000 
43 1 41.36575 3.67423 10.00000 
44 1 44.54773 3.67423 10.00000 
45 1 47.72971 3.67423 10.00000 
46 1 50.91169 3.67423 10.00000 
47 1 54.09367 3.67423 10.00000 
48 1 57.27565 3.67423 10.00000 
49 1 60.45763 3.67423 10.00000 
50 1 63.63961 3.67423 10.00000 
51 1 66.82159 3.67423 10.00000 
52 1 70.00357 3.67423 10.00000 
53 1 73.18555 3.67423 10.00000 
54 1 76.36753 3.67423 10.00000 
55 1 79.54951 3.67423 10.00000 
56 1 82.73149 3.67423 10.00000 
57 1 85.91347 3.67423 10.00000 
58 1 89.09545 3.67423 10.00000 
59 1 92.27743 3.67423 10.00000 
60 1 95.45942 3.67423 10.00000 
61 1 4.77297 6.42991 10.00000 
62 1 7.95495 6.42991 10.00000 
63 1 11.13693 6.42991 10.00000 
64 1 14.31891 6.42991 10.00000 
65 1 17.50089 6.42991 10.00000 
66 1 20.68287 6.42991 10.00000 
67 1 23.86485 6.42991 10.00000 
68 1 27.04683 6.42991 10.00000 
69 1 30.22881 6.42991 10.00000 
70 1 33.41080 6.42991 10.00000 
71 1 36.59278 6.42991 10.00000 
72 1 39.77476 6.42991 10.00000 
73 1 42.95674 6.42991 10.00000 
74 1 46.13872 6.42991 10.00000 
75 1 49.32070 6.42991 10.00000 
76 1 52.50268 6.42991 10.00000 
77 1 55.68466 6.42991 10.00000 
78 1 58.86664 6.42991 10.00000 
79 1 62.04862 6.42991 10.00000 
80 1 65.23060 6.42991 10.00000 
81 1 68.41258 6.42991 10.00000 
82 1 71.59456 6.42991 10.00000 
83 1 74.77654 6.42991 10.00000 
84 1 77.95852 6.42991 10.00000 
85 1 81.14050 6.42991 10.00000 
86 1 84.32248 6.42991 10.00000 
87 1 87.50446 6.42991 10.00000 
88 1 90.68644 6.42991 10.00000 
89 1 93.86843 6.42991 10.00000 
90 1 97.05041 6.42991 10.00000 
91 1 6.36396 9.18559 10.00000 
92 1 9.54594 9.18559 10.00000 
93 1 12.72792 9.18559 10.00000 
94 1 15.90990 9.18559 10.00000 
95 1 19.09188 9.18559 10.00000 
96 1 22.27386 9.18559 10.00000 
97 1 25.45584 9.18559 10.00000 
98 1 28.63782 9.18559 10.00000 
99 1 31.81981 9.18559 10.00000 
100 1 35.00179 9.18559 10.00000 
101 1 38.18377 9.18559 10.00000 
102 1 41.36575 9.18559 10.00000 
103 1 44.54773 9.18559 10.00000 
104 1 47.72971 9.18559 10.00000 
105 1 50.91169 9.18559 10.00000 
106 1 54.09367 9.18559 10.00000 
107 1 57.27565 9.18559 10.00000 
108 1 60.45763 9.18559 10.00000 
109 1 63.63961 9.18559 10.00000 
110 1 66.82159 9.18559 10.00000 
111 1 70.00357 9.18559 10.00000 
112 1 73.18555 9.18559 10.00000 
113 1 76.36753 9.18559 10.00000 
114 1 79.54951 9.18559 10.00000 
115 1 82.73149 9.18559 10.00000 
116 1 85.91347 9.18559 10.00000 
117 1 89.09545 9.18559 10.00000 
118 1 92.27743 9.18559 10.00000 
119 1 95.45942 9.18559 10.00000 
120 1 98.64140 9.18559 10.00000 
121 1 7.95495 11.94126 10.00000 
122 1 11.13693 11.94126 10.00000 
123 1 14.31891 11.94126 10.00000 
124 1 17.50089 11.94126 10.00000 
125 1 20.68287 11.94126 10.00000 
126 1 23.86485 11.94126 10.00000 
127 1 27.04683 11.94126 10.00000 
128 1 30.22881 11.94126 10.00000 
129 1 33.41080 11.94126 10.00000 
130 1 36.59278 11.94126 10.00000 
131 1 39.77476 11.94126 10.00000 
132 1 42.95674 11.94126 10.00000 
133 1 46.13872 11.94126 10.00000 
134 1 49.32070 11.94126 10.00000 
135 1 52.50268 11.94126 10.00000 
136 1 55.68466 11.94126 10.00000 
137 1 58.86664 11.94126 10.00000 
138 1 62.04862 11.94126 10.00000 
139 1 65.23060 11.94126 10.00000 
140 1 68.41258 11.94126 10.00000 
141 1 71.59456 11.94126 10.00000 
142 1 74.77654 11.94126 10.00000 
143 1 77.95852 11.94126 10.00000 
144 1 81.14050 11.94126 10.00000 
145 1 84.32248 11.94126 10.00000 
146 1 87.50446 11.94126 10.00000 
147 1 90.68644 11.94126 10.00000 
148 1 93.86843 11.94126 10.00000 
149 1 97.05041 11.94126 10.00000 
150 1 100.23239 11.94126 10.00000 
151 1 9.54594 14.69694 10.00000 
152 1 12.72792 14.69694 10.00000 
153 1 15.90990 14.69694 10.00000 
154 1 19.09188 14.69694 10.00000 
155 1 22.27386 14.69694 10.00000 
156 1 25.45584 14.69694 10.00000 
157 1 28.63782 14.69694 10.00000 
158 1 31.81981 14.69694 10.00000 
159 1 35.00179 14.69694 10.00000 
160 1 38.18377 14.69694 10.00000 
161 1 41.36575 14.69694 10.00000 
162 1 44.54773 14.69694 10.00000 
163 1 47.72971 14.69694 10.00000 
164 1 50.91169 14.69694 10.00000 
165 1 54.09367 14.69694 10.00000 
166 1 57.27565 14.69694 10.00000 
167 1 60.45763 14.69694 10.00000 
168 1 63.63961 14.69694 10.00000 
169 1 66.82159 14.69694 10.00000 
170 1 70.00357 14.69694 10.00000 
171 1 73.18555 14.69694 10.00000 
172 1 76.36753 14.69694 10.00000 
173 1 79.54951 14.69694 10.00000 
174 1 82.73149 14.69694 10.00000 
175 1 85.91347 14.69694 10.00000 
176 1 89.09545 14.69694 10.00000 
177 1 92.27743 14.69694 10.00000 
178 1 95.45942 14.69694 10.00000 
179 1 98.64140 14.69694 10.00000 
180 1 101.82338 14.69694 10.00000 
181 1 11.13693 17.45261 10.00000 
182 1 14.31891 17.45261 10.00000 
183 1 17.50089 17.45261 10.00000 
184 1 20.68287 17.45261 10.00000 
185 1 23.86485 17.45261 10.00000 
186 1 27.04683 17.45261 10.00000 
187 1 30.22881 17.45261 10.00000 
188 1 33.41080 17.45261 10.00000 
189 1 36.59278 17.45261 10.00000 
190 1 39.77476 17.45261 10.00000 
191 1 42.95674 17.45261 10.00000 
192 1 46.13872 17.45261 10.00000 
193 1 49.32070 17.45261 10.00000 
194 1 52.50268 17.45261 10.00000 
195 1 55.68466 17.45261 10.00000 
196 1 58.86664 17.45261 10.00000 
197 1 62.04862 17.45261 10.00000 
198 1 65.23060 17.45261 10.00000 
199 1 68.41258 17.45261 10.00000 
200 1 71.59456 17.45261 10.00000 
201 1 74.77654 17.45261 10.00000 
202 1 77.95852 17.45261 10.00000 
203 1 81.14050 17.45261 10.00000 
204 1 84.32248 17.45261 10.00000 
205 1 87.50446 17.45261 10.00000 
206 1 90.68644 17.45261 10.00000 
207 1 93.86843 17.45261 10.00000 
208 1 97.05041 17.45261 10.00000 
209 1 100.23239 17.45261 10.00000 
210 1 103.41437 17.45261 10.00000 
211 1 12.72792 20.20829 10.00000 
212 1 15.90990 20.20829 10.00000 
213 1 19.09188 20.20829 10.00000 
214 1 22.27386 20.20829 10.00000 
215 1 25.45584 20.20829 10.00000 
216 1 28.63782 20.20829 10.00000 
217 1 31.81981 20.20829 10.00000 
218 1 35.00179 20.20829 10.00000 
219 1 38.18377 20.20829 10.00000 
220 1 41.36575 20.20829 10.00000 
221 1 44.54773 20.20829 10.00000 
222 1 47.72971 20.20829 10.00000 
223 1 50.91169 20.20829 10.00000 
224 1 54.09367 20.20829 10.00000 
225 1 57.27565 20.20829 10.00000 
226 1 60.45763 20.20829 10.00000 
227 1 63.63961 20.20829 10.00000 
228 1 66.82159 20.20829 10.00000 
229 1 70.00357 20.20829 10.00000 
230 1 73.18555 20.20829 10.00000 
231 1 76.36753 20.20829 10.00000 
232 1 79.54951 20.20829 10.00000 
233 1 82.73149 20.20829 10.00000 
234 1 85.91347 20.20829 10.00000 
235 1 89.09545 20.20829 10.00000 
236 1 92.27743 20.20829 10.00000 
237 1 95.45942 20.20829 10.00000 
238 1 98.64140 20.20829 10.00000 
239 1 101.82338 20.20829 10.00000 
240 1 105.00536 20.20829 10.00000 
241 1 14.31891 22.96397 10.00000 
242 1 17.50089 22.96397 10.00000 
243 1 20.68287 22.96397 10.00000 
244 1 23.86485 22.96397 10.00000 
245 1 27.04683 22.96397 10.00000 
246 1 30.22881 22.96397 10.00000 
247 1 33.41080 22.96397 10.00000 
248 1 36.59278 22.96397 10.00000 
249 1 39.77476 22.96397 10.00000 
250 1 42.95674 22.96397 10.00000 
251 1 46.13872 22.96397 10.00000 
252 1 49.32070 22.96397 10.00000 
253 1 52.50268 22.96397 10.00000 
254 1 55.68466 22.96397 10.00000 
255 1 58.86664 22.96397 10.00000 
256 1 62.04862 22.96397 10.00000 
257 1 65.23060 22.96397 10.00000 
258 1 68.41258 22.96397 10.00000 
259 1 71.59456 22.96397 10.00000 
260 1 74.77654 22.96397 10.00000 
261 1 77.95852 22.96397 10.00000 
262 1 81.14050 22.96397 10.00000 
263 1 84.32248 22.96397 10.00000 
264 1 87.50446 22.96397 10.00000 
265 1 90.68644 22.96397 10.00000 
266 1 93.86843 22.96397 10.00000 
267 1 97.05041 22.96397 10.00000 
268 1 100.23239 22.96397 10.00000 
269 1 103.41437 22.96397 10.00000 
270 1 106.59635 22.96397 10.00000 
271 1 15.90990 25.71964 10.00000 
272 1 19.09188 25.71964 10.00000 
273 1 22.27386 25.71964 10.00000 
274 1 25.45584 25.71964 10.00000 
275 1 28.63782 25.71964 10.00000 
276 1 31.81981 25.71964 10.00000 
277 1 35.00179 25.71964 10.00000 
278 1 38.18377 25.71964 10.00000 
279 1 41.36575 25.71964 10.00000 
280 1 44.54773 25.71964 10.00000 
281 1 47.72971 25.71964 10.00000 
282 1 50.91169 25.71964 10.00000 
283 1 54.09367 25.71964 10.00000 
284 1 57.27565 25.71964 10.00000 
285 1 60.45763 25.71964 10.00000 
286 1 63.63961 25.71964 10.00000 
287 1 66.82159 25.71964 10.00000 
288 1 70.00357 25.71964 10.00000 
289 1 73.18555 25.71964 10.00000 
290 1 76.36753 25.71964 10.00000 
291 1 79.54951 25.71964 10.00000 
292 1 82.73149 25.71964 10.00000 
293 1 85.91347 25.71964 10.00000 
294 1 89.09545 25.71964 10.00000 
295 1 92.27743 25.71964 10.00000 
296 1 95.45942 25.71964 10.00000 
297 1 98.64140 25.71964 10.00000 
298 1 101.82338 25.71964 10.00000 
299 1 105.00536 25.71964 10.00000 
300 1 108.18734 25.71964 10.00000 
301 1 17.50089 28.47532 10.00000 
302 1 20.68287 28.47532 10.00000 
303 1 23.86485 28.47532 10.00000 
304 1 27.04683 28.47532 10.00000 
305 1 30.22881 28.47532 10.00000 
306 1 33.41080 28.47532 10.00000 
307 1 36.59278 28.47532 10.00000 
308 1 39.77476 28.47532 10.00000 
309 1 42.95674 28.47532 10.00000 
310 1 46.13872 28.47532 10.00000 
311 1 49.32070 28.47532 10.00000 
312 1 52.50268 28.47532 10.00000 
313 1 55.68466 28.47532 10.00000 
314 1 58.86664 28.47532 10.00000 
315 1 62.04862 28.47532 10.00000 
316 1 65.23060 28.47532 10.00000 
317 1 68.41258 28.47532 10.00000 
318 1 71.59456 28.47532 10.00000 
319 1 74.77654 28.47532 10.00000 
320 1 77.95852 28.47532 10.00000 
321 1 81.14050 28.47532 10.00000 
322 1 84.32248 28.47532 10.00000 
323 1 87.50446 28.47532 10.00000 
324 1 90.68644 28.47532 10.00000 
325 1 93.86843 28.47532 10.00000 
326 1 97.05041 28.47532 10.00000 
327 1 100.23239 28.47532 10.00000 
328 1 103.41437 28.47532 10.00000 
329 1 106.59635 28.47532 10.00000 
330 1 109.77833 28.47532 10.00000 
331 1 19.09188 31.23099 10.00000 
332 1 22.27386 31.23099 10.00000 
333 1 25.45584 31.23099 10.00000 
334 1 28.63782 31.23099 10.00000 
335 1 31.81981 31.23099 10.00000 
336 1 35.00179 31.23099 10.00000 
337 1 38.18377 31.23099 10.00000 
338 1 41.36575 31.23099 10.00000 
339 1 44.54773 31.23099 10.00000 
340 1 47.72971 31.23099 10.00000 
341 1 50.91169 31.23099 10.00000 
342 1 54.09367 31.23099 10.00000 
343 1 57.27565 31.23099 10.00000 
344 1 60.45763 31.23099 10.00000 
345 1 63.63961 31.23099 10.00000 
346 1 66.82159 31.23099 10.00000 
347 1 70.00357 31.23099 10.00000 
348 1 73.18555 31.23099 10.00000 
349 1 76.36753 31.23099 10.00000 
350 1 79.54951 31.23099 10.00000 
351 1 82.73149 31.23099 10.00000 
352 1 85.91347 31.23099 10.00000 
353 1 89.09545 31.23099 10.00000 
354 1 92.27743 31.23099 10.00000 
355 1 95.45942 31.23099 10.00000 
356 1 98.64140 31.23099 10.00000 
357 1 101.82338 31.23099 10.00000 
358 1 105.00536 31.23099 10.00000 
359 1 108.18734 31.23099 10.00000 
360 1 111.36932 31.23099 10.00000 
361 1 20.68287 33.98667 10.00000 
362 1 23.86485 33.98667 10.00000 
363 1 27.04683 33.98667 10.00000 
364 1 30.22881 33.98667 10.00000 
365 1 33.41080 33.98667 10.00000 
366 1 36.59278 33.98667 10.00000 
367 1 39.77476 33.98667 10.00000 
368 1 42.95674 33.98667 10.00000 
369 1 46.13872 33.98667 10.00000 
370 1 49.32070 33.98667 10.00000 
371 1 52.50268 33.98667 10.00000 
372 1 55.68466 33.98667 10.00000 
373 1 58.86664 33.98667 10.00000 
374 1 62.04862 33.98667 10.00000 
375 1 65.23060 33.98667 10.00000 
376 1 68.41258 33.98667 10.00000 
377 1 71.59456 33.98667 10.00000 
378 1 74.77654 33.98667 10.00000 
379 1 77.95852 33.98667 10.00000 
380 1 81.14050 33.98667 10.00000 
381 1 84.32248 33.98667 10.00000 
382 1 87.50446 33.98667 10.00000 
383 1 90.68644 33.98667 10.00000 
384 1 93.86843 33.98667 10.00000 
385 1 97.05041 33.98667 10.00000 
386 1 100.23239 33.98667 10.00000 
387 1 103.41437 33.98667 10.00000 
388 1 106.59635 33.98667 10.00000 
389 1 109.77833 33.98667 10.00000 
390 1 112.96031 33.98667 10.00000 
391 1 22.27386 36.74235 10.00000 
392 1 25.45584 36.74235 10.00000 
393 1 28.63782 36.74235 10.00000 
394 1 31.81981 36.74235 10.00000 
395 1 35.00179 36.74235 10.00000 
396 1 38.18377 36.74235 10.00000 
397 1 41.36575 36.74235 10.00000 
398 1 44.54773 36.74235 10.00000 
399 1 47.72971 36.74235 10.00000 
400 1 50.91169 36.74235 10.00000 
401 1 54.09367 36.74235 10.00000 
402 1 57.27565 36.74235 10.00000 
403 1 60.45763 36.74235 10.00000 
404 1 63.63961 36.74235 10.00000 
405 1 66.82159 36.74235 10.00000 
406 1 70.00357 36.74235 10.00000 
407 1 73.18555 36.74235 10.00000 
408 1 76.36753 36.74235 10.00000 
409 1 79.54951 36.74235 10.00000 
410 1 82.73149 36.74235 10.00000 
411 1 85.91347 36.74235 10.00000 
412 1 89.09545 36.74235 10.00000 
413 1 92.27743 36.74235 10.00000 
414 1 95.45942 36.74235 10.00000 
415 1 98.64140 36.74235 10.00000 
416 1 101.82338 36.74235 10.00000 
417 1 105.00536 36.74235 10.00000 
418 1 108.18734 36.74235 10.00000 
419 1 111.36932 36.74235 10.00000 
420 1 114.55130 36.74235 10.00000 
421 1 23.86485 39.49802 10.00000 
422 1 27.04683 39.49802 10.00000 
423 1 30.22881 39.49802 10.00000 
424 1 33.41080 39.49802 10.00000 
425 1 36.59278 39.49802 10.00000 
426 1 39.77476 39.49802 10.00000 
427 1 42.95674 39.49802 10.00000 
428 1 46.13872 39.49802 10.00000 
429 1 49.32070 39.49802 10.00000 
430 1 52.50268 39.49802 10.00000 
431 1 55.68466 39.49802 10.00000 
432 1 58.86664 39.49802 10.00000 
433 1 62.04862 39.49802 10.00000 
434 1 65.23060 39.49802 10.00000 
435 1 68.41258 39.49802 10.00000 
436 1 71.59456 39.49802 10.00000 
437 1 74.77654 39.49802 10.00000 
438 1 77.95852 39.49802 10.00000 
439 1 81.14050 39.49802 10.00000 
440 1 84.32248 39.49802 10.00000 
441 1 87.50446 39.49802 10.00000 
442 1 90.68644 39.49802 10.00000 
443 1 93.86843 39.49802 10.00000 
444 1 97.05041 39.49802 10.00000 
445 1 100.23239 39.49802 10.00000 
446 1 103.41437 39.49802 10.00000 
447 1 106.59635 39.49802 10.00000 
448 1 109.77833 39.49802 10.00000 
449 1 112.96031 39.49802 10.00000 
450 1 116.14229 39.49802 10.00000 
451 1 25.45584 42.25370 10.00000 
452 1 28.63782 42.25370 10.00000 
453 1 31.81981 42.25370 10.00000 
454 1 35.00179 42.25370 10.00000 
455 1 38.18377 42.25370 10.00000 
456 1 41.36575 42.25370 10.00000 
457 1 44.54773 42.25370 10.00000 
458 1 47.72971 42.25370 10.00000 
459 1 50.91169 42.25370 10.00000 
460 1 54.09367 42.25370 10.00000 
461 1 57.27565 42.25370 10.00000 
462 1 60.45763 42.25370 10.00000 
463 1 63.63961 42.25370 10.00000 
464 1 66.82159 42.25370 10.00000 
465 1 70.00357 42.25370 10.00000 
466 1 73.18555 42.25370 10.00000 
467 1 76.36753 42.25370 10.00000 
468 1 79.54951 42.25370 10.00000 
469 1 82.73149 42.25370 10.00000 
470 1 85.91347 42.25370 10.00000 
471 1 89.09545 42.25370 10.00000 
472 1 92.27743 42.25370 10.00000 
473 1 95.45942 42.25370 10.00000 
474 1 98.64140 42.25370 10.00000 
475 1 101.82338 42.25370 10.00000 
476 1 105.00536 42.25370 10.00000 
477 1 108.18734 42.25370 10.00000 
478 1 111.36932 42.25370 10.00000 
479 1 114.55130 42.25370 10.00000 
480 1 117.73328 42.25370 10.00000 
481 1 27.04683 45.00937 10.00000 
482 1 30.22881 45.00937 10.00000 
483 1 33.41080 45.00937 10.00000 
484 1 36.59278 45.00937 10.00000 
485 1 39.77476 45.00937 10.00000 
486 1 42.95674 45.00937 10.00000 
487 1 46.13872 45.00937 10.00000 
488 1 49.32070 45.00937 10.00000 
489 1 52.50268 45.00937 10.00000 
490 1 55.68466 45.00937 10.00000 
491 1 58.86664 45.00937 10.00000 
492 1 62.04862 45.00937 10.00000 
493 1 65.23060 45.00937 10.00000 
494 1 68.41258 45.00937 10.00000 
495 1 71.59456 45.00937 10.00000 
496 1 74.77654 45.00937 10.00000 
497 1 77.95852 45.00937 10.00000 
498 1 81.14050 45.00937 10.00000 
499 1 84.32248 45.00937 10.00000 
500 1 87.50446 45.00937 10.00000 
501 1 90.68644 45.00937 10.00000 
502 1 93.86843 45.00937 10.00000 
503 1 97.05041 45.00937 10.00000 
504 1 100.23239 45.00937 10.00000 
505 1 103.41437 45.00937 10.00000 
506 1 106.59635 45.00937 10.00000 
507 1 109.77833 45.00937 10.00000 
508 1 112.96031 45.00937 10.00000 
509 1 116.14229 45.00937 10.00000 
510 1 119.32427 45.00937 10.00000 
511 1 28.63782 47.76505 10.00000 
512 1 31.81981 47.76505 10.00000 
513 1 35.00179 47.76505 10.00000 
514 1 38.18377 47.76505 10.00000 
515 1 41.36575 47.76505 10.00000 
516 1 44.54773 47.76505 10.00000 
517 1 47.72971 47.76505 10.00000 
518 1 50.91169 47.76505 10.00000 
519 1 54.09367 47.76505 10.00000 
520 1 57.27565 47.76505 10.00000 
521 1 60.45763 47.76505 10.00000 
522 1 63.63961 47.76505 10.00000 
523 1 66.82159 47.76505 10.00000 
524 1 70.00357 47.76505 10.00000 
525 1 73.18555 47.76505 10.00000 
526 1 76.36753 47.76505 10.00000 
527 1 79.54951 47.76505 10.00000 
528 1 82.73149 47.76505 10.00000 
529 1 85.91347 47.76505 10.00000 
530 1 89.09545 47.76505 10.00000 
531 1 92.27743 47.76505 10.00000 
532 1 95.45942 47.76505 10.00000 
533 1 98.64140 47.76505 10.00000 
534 1 101.82338 47.76505 10.00000 
535 1 105.00536 47.76505 10.00000 
536 1 108.18734 47.76505 10.00000 
537 1 111.36932 47.76505 10.00000 
538 1 114.55130 47.76505 10.00000 
539 1 117.73328 47.76505 10.00000 
540 1 120.91526 47.76505 10.00000 
541 1 30.22881 50.52073 10.00000 
542 1 33.41080 50.52073 10.00000 
543 1 36.59278 50.52073 10.00000 
544 1 39.77476 50.52073 10.00000 
545 1 42.95674 50.52073 10.00000 
546 1 46.13872 50.52073 10.00000 
547 1 49.32070 50.52073 10.00000 
548 1 52.50268 50.52073 10.00000 
549 1 55.68466 50.52073 10.00000 
550 1 58.86664 50.52073 10.00000 
551 1 62.04862 50.52073 10.00000 
552 1 65.23060 50.52073 10.00000 
553 1 68.41258 50.52073 10.00000 
554 1 71.59456 50.52073 10.00000 
555 1 74.77654 50.52073 10.00000 
556 1 77.95852 50.52073 10.00000 
557 1 81.14050 50.52073 10.00000 
558 1 84.32248 50.52073 10.00000 
559 1 87.50446 50.52073 10.00000 
560 1 90.68644 50.52073 10.00000 
561 1 93.86843 50.52073 10.00000 
562 1 97.05041 50.52073 10.00000 
563 1 100.23239 50.52073 10.00000 
564 1 103.41437 50.52073 10.00000 
565 1 106.59635 50.52073 10.00000 
566 1 109.77833 50.52073 10.00000 
567 1 112.96031 50.52073 10.00000 
568 1 116.14229 50.52073 10.00000 
569 1 119.32427 50.52073 10.00000 
570 1 122.50625 50.52073 10.00000 
571 1 31.81981 53.27640 10.00000 
572 1 35.00179 53.27640 10.00000 
573 1 38.18377 53.27640 10.00000 
574 1 41.36575 53.27640 10.00000 
575 1 44.54773 53.27640 10.00000 
576 1 47.72971 53.27640 10.00000 
577 1 50.91169 53.27640 10.00000 
578 1 54.09367 53.27640 10.00000 
579 1 57.27565 53.27640 10.00000 
580 1 60.45763 53.27640 10.00000 
581 1 63.63961 53.27640 10.00000 
582 1 66.82159 53.27640 10.00000 
583 1 70.00357 53.27640 10.00000 
584 1 73.18555 53.27640 10.00000 
585 1 76.36753 53.27640 10.00000 
586 1 79.54951 53.27640 10.00000 
587 1 82.73149 53.27640 10.00000 
588 1 85.91347 53.27640 10.00000 
589 1 89.09545 53.27640 10.00000 
590 1 92.27743 53.27640 10.00000 
591 1 95.45942 53.27640 10.00000 
592 1 98.64140 53.27640 10.00000 
593 1 101.82338 53.27640 10.00000 
594 1 105.00536 53.27640 10.00000 
595 1 108.18734 53.27640 10.00000 
596 1 111.36932 53.27640 10.00000 
597 1 114.55130 53.27640 10.00000 
598 1 117.73328 53.27640 10.00000 
599 1 120.91526 53.27640 10.00000 
600 1 124.09724 53.27640 10.00000 
601 1 33.41080 56.03208 10.00000 
602 1 36.59278 56.03208 10.00000 
603 1 39.77476 56.03208 10.00000 
604 1 42.95674 56.03208 10.00000 
605 1 46.13872 56.03208 10.00000 
606 1 49.32070 56.03208 10.00000 
607 1 52.50268 56.03208 10.00000 
608 1 55.68466 56.03208 10.00000 
609 1 58.86664 56.03208 10.00000 
610 1 62.04862 56.03208 10.00000 
611 1 65.23060 56.03208 10.00000 
612 1 68.41258 56.03208 10.00000 
613 1 71.59456 56.03208 10.00000 
614 1 74.77654 56.03208 10.00000 
615 1 77.95852 56.03208 10.00000 
616 1 81.14050 56.03208 10.00000 
617 1 84.32248 56.03208 10.00000 
618 1 87.50446 56.03208 10.00000 
619 1 90.68644 56.03208 10.00000 
620 1 93.86843 56.03208 10.00000 
621 1 97.05041 56.03208 10.00000 
622 1 100.23239 56.03208 10.00000 
623 1 103.41437 56.03208 10.00000 
624 1 106.59635 56.03208 10.00000 
625 1 109.77833 56.03208 10.00000 
626 1 112.96031 56.03208 10.00000 
627 1 116.14229 56.03208 10.00000 
628 1 119.32427 56.03208 10.00000 
629 1 122.50625 56.03208 10.00000 
630 1 125.68823 56.03208 10.00000 
631 1 35.00179 58.78775 10.00000 
632 1 38.18377 58.78775 10.00000 
633 1 41.36575 58.78775 10.00000 
634 1 44.54773 58.78775 10.00000 
635 1 47.72971 58.78775 10.00000 
636 1 50.91169 58.78775 10.00000 
637 1 54.09367 58.78775 10.00000 
638 1 57.27565 58.78775 10.00000 
639 1 60.45763 58.78775 10.00000 
640 1 63.63961 58.78775 10.00000 
641 1 66.82159 58.78775 10.00000 
642 1 70.00357 58.78775 10.00000 
643 1 73.18555 58.78775 10.00000 
644 1 76.36753 58.78775 10.00000 
645 1 79.54951 58.78775 10.00000 
646 1 82.73149 58.78775 10.00000 
647 1 85.91347 58.78775 10.00000 
648 1 89.09545 58.78775 10.00000 
649 1 92.27743 58.78775 10.00000 
650 1 95.45942 58.78775 10.00000 
651 1 98.64140 58.78775 10.00000 
652 1 101.82338 58.78775 10.00000 
653 1 105.00536 58.78775 10.00000 
654 1 108.18734 58.78775 10.00000 
655 1 111.36932 58.78775 10.00000 
656 1 114.55130 58.78775 10.00000 
657 1 117.73328 58.78775 10.00000 
658 1 120.91526 58.78775 10.00000 
659 1 124.09724 58.78775 10.00000 
660 1 127.27922 58.78775 10.00000 
661 1 36.59278 61.54343 10.00000 
662 1 39.77476 61.54343 10.00000 
663 1 42.95674 61.54343 10.00000 
664 1 46.13872 61.54343 10.00000 
665 1 49.32070 61.54343 10.00000 
666 1 52.50268 61.54343 10.00000 
667 1 55.68466 61.54343 10.00000 
668 1 58.86664 61.54343 10.00000 
669 1 62.04862 61.54343 10.00000 
670 1 65.23060 61.54343 10.00000 
671 1 68.41258 61.54343 10.00000 
672 1 71.59456 61.54343 10.00000 
673 1 74.77654 61.54343 10.00000 
674 1 77.95852 61.54343 10.00000 
675 1 81.14050 61.54343 10.00000 
676 1 84.32248 61.54343 10.00000 
677 1 87.50446 61.54343 10.00000 
678 1 90.68644 61.54343 10.00000 
679 1 93.86843 61.54343 10.00000 
680 1 97.05041 61.54343 10.00000 
681 1 100.23239 61.54343 10.00000 
682 1 103.41437 61.54343 10.00000 
683 1 106.59635 61.54343 10.00000 
684 1 109.77833 61.54343 10.00000 
685 1 112.96031 61.54343 10.00000 
686 1 116.14229 61.54343 10.00000 
687 1 119.32427 61.54343 10.00000 
688 1 122.50625 61.54343 10.00000 
689 1 125.68823 61.54343 10.00000 
690 1 128.87021 61.54343 10.00000 
691 1 38.18377 64.29911 10.00000 
692 1 41.36575 64.29911 10.00000 
693 1 44.54773 64.29911 10.00000 
694 1 47.72971 64.29911 10.00000 
695 1 50.91169 64.29911 10.00000 
696 1 54.09367 64.29911 10.00000 
697 1 57.27565 64.29911 10.00000 
698 1 60.45763 64.29911 10.00000 
699 1 63.63961 64.29911 10.00000 
700 1 66.82159 64.29911 10.00000 
701 1 70.00357 64.29911 10.00000 
702 1 73.18555 64.29911 10.00000 
703 1 76.36753 64.29911 10.00000 
704 1 79.54951 64.29911 10.00000 
705 1 82.73149 64.29911 10.00000 
706 1 85.91347 64.29911 10.00000 
707 1 89.09545 64.29911 10.00000 
708 1 92.27743 64.29911 10.00000 
709 1 95.45942 64.29911 10.00000 
710 1 98.64140 64.29911 10.00000 
711 1 101.82338 64.29911 10.00000 
712 1 105.00536 64.29911 10.00000 
713 1 108.18734 64.29911 10.00000 
714 1 111.36932 64.29911 10.00000 
715 1 114.55130 64.29911 10.00000 
716 1 117.73328 64.29911 10.00000 
717 1 120.91526 64.29911 10.00000 
718 1 124.09724 64.29911 10.00000 
719 1 127.27922 64.29911 10.00000 
720 1 130.46120 64.29911 10.00000 
721 1 39.77476 67.05478 10.00000 
722 1 42.95674 67.05478 10.00000 
723 1 46.13872 67.05478 10.00000 
724 1 49.32070 67.05478 10.00000 
725 1 52.50268 67.05478 10.00000 
726 1 55.68466 67.05478 10.00000 
727 1 58.86664 67.05478 10.00000 
728 1 62.04862 67.05478 10.00000 
729 1 65.23060 67.05478 10.00000 
730 1 68.41258 67.05478 10.00000 
731 1 71.59456 67.05478 10.00000 
732 1 74.77654 67.05478 10.00000 
733 1 77.95852 67.05478 10.00000 
734 1 81.14050 67.05478 10.00000 
735 1 84.32248 67.05478 10.00000 
736 1 87.50446 67.05478 10.00000 
737 1 90.68644 67.05478 10.00000 
738 1 93.86843 67.05478 10.00000 
739 1 97.05041 67.05478 10.00000 
740 1 100.23239 67.05478 10.00000 
741 1 103.41437 67.05478 10.00000 
742 1 106.59635 67.05478 10.00000 
743 1 109.77833 67.05478 10.00000 
744 1 112.96031 67.05478 10.00000 
745 1 116.14229 67.05478 10.00000 
746 1 119.32427 67.05478 10.00000 
747 1 122.50625 67.05478 10.00000 
748 1 125.68823 67.05478 10.00000 
749 1 128.87021 67.05478 10.00000 
750 1 132.05219 67.05478 10.00000 
751 1 41.36575 69.81046 10.00000 
752 1 44.54773 69.81046 10.00000 
753 1 47.72971 69.81046 10.00000 
754 1 50.91169 69.81046 10.00000 
755 1 54.09367 69.81046 10.00000 
756 1 57.27565 69.81046 10.00000 
757 1 60.45763 69.81046 10.00000 
758 1 63.63961 69.81046 10.00000 
759 1 66.82159 69.81046 10.00000 
760 1 70.00357 69.81046 10.00000 
761 1 73.18555 69.81046 10.00000 
762 1 76.36753 69.81046 10.00000 
763 1 79.54951 69.81046 10.00000 
764 1 82.73149 69.81046 10.00000 
765 1 85.91347 69.81046 10.00000 
766 1 89.09545 69.81046 10.00000 
767 1 92.27743 69.81046 10.00000 
768 1 95.45942 69.81046 10.00000 
769 1 98.64140 69.81046 10.00000 
770 1 101.82338 69.81046 10.00000 
771 1 105.00536 69.81046 10.00000 
772 1 108.18734 69.81046 10.00000 
773 1 111.36932 69.81046 10.00000 
774 1 114.55130 69.81046 10.00000 
775 1 117.73328 69.81046 10.00000 
776 1 120.91526 69.81046 10.00000 
777 1 124.09724 69.81046 10.00000 
778 1 127.27922 69.81046 10.00000 
779 1 130.46120 69.81046 10.00000 
780 1 133.64318 69.81046 10.00000 
781 1 42.95674 72.56613 10.00000 
782 1 46.13872 72.56613 10.00000 
783 1 49.32070 72.56613 10.00000 
784 1 52.50268 72.56613 10.00000 
785 1 55.68466 72.56613 10.00000 
786 1 58.86664 72.56613 10.00000 
787 1 62.04862 72.56613 10.00000 
788 1 65.23060 72.56613 10.00000 
789 1 68.41258 72.56613 10.00000 
790 1 71.59456 72.56613 10.00000 
791 1 74.77654 72.56613 10.00000 
792 1 77.95852 72.56613 10.00000 
793 1 81.14050 72.56613 10.00000 
794 1 84.32248 72.56613 10.00000 
795 1 87.50446 72.56613 10.00000 
796 1 90.68644 72.56613 10.00000 
797 1 93.86843 72.56613 10.00000 
798 1 97.05041 72.56613 10.00000 
799 1 100.23239 72.56613 10.00000 
800 1 103.41437 72.56613 10.00000 
801 1 106.59635 72.56613 10.00000 
802 1 109.77833 72.56613 10.00000 
803 1 112.96031 72.56613 10.00000 
804 1 116.14229 72.56613 10.00000 
805 1 119.32427 72.56613 10.00000 
806 1 122.50625 72.56613 10.00000 
807 1 125.68823 72.56613 10.00000 
808 1 128.87021 72.56613 10.00000 
809 1 132.05219 72.56613 10.00000 
810 1 135.23417 72.56613 10.00000 
811 1 44.54773 75.32181 10.00000 
812 1 47.72971 75.32181 10.00000 
813 1 50.91169 75.32181 10.00000 
814 1 54.09367 75.32181 10.00000 
815 1 57.27565 75.32181 10.00000 
816 1 60.45763 75.32181 10.00000 
817 1 63.63961 75.32181 10.00000 
818 1 66.82159 75.32181 10.00000 
819 1 70.00357 75.32181 10.00000 
820 1 73.18555 75.32181 10.00000 
821 1 76.36753 75.32181 10.00000 
822 1 79.54951 75.32181 10.00000 
823 1 82.73149 75.32181 10.00000 
824 1 85.91347 75.32181 10.00000 
825 1 89.09545 75.32181 10.00000 
826 1 92.27743 75.32181 10.00000 
827 1 95.45942 75.32181 10.00000 
828 1 98.64140 75.32181 10.00000 
829 1 101.82338 75.32181 10.00000 
830 1 105.00536 75.32181 10.00000 
831 1 108.18734 75.32181 10.00000 
832 1 111.36932 75.32181 10.00000 
833 1 114.55130 75.32181 10.00000 
834 1 117.73328 75.32181 10.00000 
835 1 120.91526 75.32181 10.00000 
836 1 124.09724 75.32181 10.00000 
837 1 127.27922 75.32181 10.00000 
838 1 130.46120 75.32181 10.00000 
839 1 133.64318 75.32181 10.00000 
840 1 136.82516 75.32181 10.00000 
841 1 46.13872 78.07749 10.00000 
842 1 49.32070 78.07749 10.00000 
843 1 52.50268 78.07749 10.00000 
844 1 55.68466 78.07749 10.00000 
845 1 58.86664 78.07749 10.00000 
846 1 62.04862 78.07749 10.00000 
847 1 65.23060 78.07749 10.00000 
848 1 68.41258 78.07749 10.00000 
849 1 71.59456 78.07749 10.00000 
850 1 74.77654 78.07749 10.00000 
851 1 77.95852 78.07749 10.00000 
852 1 81.14050 78.07749 10.00000 
853 1 84.32248 78.07749 10.00000 
854 1 87.50446 78.07749 10.00000 
855 1 90.68644 78.07749 10.00000 
856 1 93.86843 78.07749 10.00000 
857 1 97.05041 78.07749 10.00000 
858 1 100.23239 78.07749 10.00000 
859 1 103.41437 78.07749 10.00000 
860 1 106.59635 78.07749 10.00000 
861 1 109.77833 78.07749 10.00000 
862 1 112.96031 78.07749 10.00000 
863 1 116.14229 78.07749 10.00000 
864 1 119.32427 78.07749 10.00000 
865 1 122.50625 78.07749 10.00000 
866 1 125.68823 78.07749 10.00000 
867 1 128.87021 78.07749 10.00000 
868 1 132.05219 78.07749 10.00000 
869 1 135.23417 78.07749 10.00000 
870 1 138.41615 78.07749 10.00000 
871 1 47.72971 80.83316 10.00000 
872 1 50.91169 80.83316 10.00000 
873 1 54.09367 80.83316 10.00000 
874 1 57.27565 80.83316 10.00000 
875 1 60.45763 80.83316 10.00000 
876 1 63.63961 80.83316 10.00000 
877 1 66.82159 80.83316 10.00000 
878 1 70.00357 80.83316 10.00000 