ITEM: TIMESTEP
0
ITEM: NUMBER OF ATOMS
4
ITEM: BOX BOUNDS pp pp pp
0.0000000000000000e+00 4.0999999999999996e+00
0.0000000000000000e+00 4.0999999999999996e+00
0.0000000000000000e+00 4.0999999999999996e+00
ITEM: ATOMS id type xs ys zs
1 1 0 0 0
2 1 0 0.5 0.5
3 1 0.5 0 0.5
4 1 0.5 0.5 0
ITEM: TIMESTEP
1
ITEM: NUMBER OF ATOMS
4
ITEM: BOX BOUNDS pp pp pp
0.0000000000000000e+00 4.0999999999999996e+00
0.0000000000000000e+00 4.0999999999999996e+00
0.0000000000000000e+00 4.0999999999999996e+00
ITEM: ATOMS id type xs ys zs
1 1 0.000166132 0.0127079 -0.010047
2 1 -0.00178681 0.492461 0.504639
3 1 0.493711 -0.000437331 0.500292
4 1 0.507909 0.495268 0.00511608
ITEM: TIMESTEP
2
ITEM: NUMBER OF ATOMS
4
ITEM: BOX BOUNDS pp pp pp
0.0000000000000000e+00 4.0999999999999996e+00
0.0000000000000000e+00 4.0999999999999996e+00
0.0000000000000000e+00 4.0999999999999996e+00
ITEM: ATOMS id type xs ys zs
1 1 0.000436034 0.0232384 -0.0187118
2 1 -0.00327772 0.48658 0.508436
3 1 0.487949 -0.00170768 0.500203
4 1 0.514893 0.491889 0.0100729
ITEM: TIMESTEP
3
ITEM: NUMBER OF ATOMS
4
ITEM: BOX BOUNDS pp pp pp
0.0000000000000000e+00 4.0999999999999996e+00
0.0000000000000000e+00 4.0999999999999996e+00
0.0000000000000000e+00 4.0999999999999996e+00
ITEM: ATOMS id type xs ys zs
1 1 0.000897508 0.0298444 -0.0248331
2 1 -0.00424582 0.483676 0.510658
3 1 0.483192 -0.00436945 0.499475
4 1 0.520156 0.490849 0.0146992
ITEM: TIMESTEP
4
ITEM: NUMBER OF ATOMS
4
ITEM: BOX BOUNDS pp pp pp
0.0000000000000000e+00 4.0999999999999996e+00
0.0000000000000000e+00 4.0999999999999996e+00
0.0000000000000000e+00 4.0999999999999996e+00
ITEM: ATOMS id type xs ys zs
1 1 0.00157532 0.0315553 -0.0276622
2 1 -0.00457049 0.48441 0.510872
3 1 0.47985 -0.00848312 0.498063
4 1 0.523145 0.492517 0.0187278
ITEM: TIMESTEP
5
ITEM: NUMBER OF ATOMS
4
ITEM: BOX BOUNDS pp pp pp
0.0000000000000000e+00 4.0999999999999996e+00
0.0000000000000000e+00 4.0999999999999996e+00
0.0000000000000000e+00 4.0999999999999996e+00
ITEM: ATOMS id type xs ys zs
1 1 0.00238144 0.0283863 -0.0270167
2 1 -0.00424429 0.488569 0.509121
3 1 0.478238 -0.0135061 0.496171
4 1 0.523625 0.496551 0.0217247
ITEM: TIMESTEP
6
ITEM: NUMBER OF ATOMS
4
ITEM: BOX BOUNDS pp pp pp
0.0000000000000000e+00 4.0999999999999996e+00
0.0000000000000000e+00 4.0999999999999996e+00
0.0000000000000000e+00 4.0999999999999996e+00
ITEM: ATOMS id type xs ys zs
1 1 0.0031244 0.0212998 -0.0232841
2 1 -0.00336619 0.49509 0.505935
3 1 0.478558 -0.0183559 0.494236
4 1 0.521684 0.501966 0.0231129
ITEM: TIMESTEP
7
ITEM: NUMBER OF ATOMS
4
ITEM: BOX BOUNDS pp pp pp
0.0000000000000000e+00 4.0999999999999996e+00
0.0000000000000000e+00 4.0999999999999996e+00
0.0000000000000000e+00 4.0999999999999996e+00
ITEM: ATOMS id type xs ys zs
1 1 0.00358074 0.0119039 -0.0172477
2 1 -0.0021279 0.502372 0.502112
3 1 0.480879 -0.0216493 0.492834
4 1 0.517669 0.507373 0.022302
ITEM: TIMESTEP
8
ITEM: NUMBER OF ATOMS
4
ITEM: BOX BOUNDS pp pp pp
0.0000000000000000e+00 4.0999999999999996e+00
0.0000000000000000e+00 4.0999999999999996e+00
0.0000000000000000e+00 4.0999999999999996e+00
ITEM: ATOMS id type xs ys zs
1 1 0.00357235 0.00203748 -0.00987244
2 1 -0.000780864 0.508716 0.498457
3 1 0.485123 -0.0220748 0.492526
4 1 0.512086 0.511321 0.0188889
ITEM: TIMESTEP
9
ITEM: NUMBER OF ATOMS
4
ITEM: BOX BOUNDS pp pp pp
0.0000000000000000e+00 4.0999999999999996e+00
0.0000000000000000e+00 4.0999999999999996e+00
0.0000000000000000e+00 4.0999999999999996e+00
ITEM: ATOMS id type xs ys zs
1 1 0.0030073 -0.00660717 -0.00214795
2 1 0.000427712 0.512731 0.495616
3 1 0.491026 -0.018797 0.49367
4 1 0.505539 0.512673 0.0128618
ITEM: TIMESTEP
10
ITEM: NUMBER OF ATOMS
4
ITEM: BOX BOUNDS pp pp pp
0.0000000000000000e+00 4.0999999999999996e+00
0.0000000000000000e+00 4.0999999999999996e+00
0.0000000000000000e+00 4.0999999999999996e+00
ITEM: ATOMS id type xs ys zs
1 1 0.0018933 -0.0127824 0.00503225
2 1 0.001327 0.513632 0.49399
3 1 0.498095 -0.0117535 0.496272
4 1 0.498684 0.510904 0.00470568
ITEM: TIMESTEP
11
ITEM: NUMBER OF ATOMS
4
ITEM: BOX BOUNDS pp pp pp
0.0000000000000000e+00 4.0999999999999996e+00
0.0000000000000000e+00 4.0999999999999996e+00
0.0000000000000000e+00 4.0999999999999996e+00
ITEM: ATOMS id type xs ys zs
1 1 0.000348144 -0.0159026 0.0109957
2 1 0.00185518 0.511381 0.49369
3 1 0.50561 -0.00173725 0.499971
4 1 0.492187 0.506259 -0.00465661
ITEM: TIMESTEP
12
ITEM: NUMBER OF ATOMS
4
ITEM: BOX BOUNDS pp pp pp
0.0000000000000000e+00 4.0999999999999996e+00
0.0000000000000000e+00 4.0999999999999996e+00
0.0000000000000000e+00 4.0999999999999996e+00
ITEM: ATOMS id type xs ys zs
1 1 -0.00140341 -0.0161316 0.0153783
2 1 0.00204148 0.50668 0.494522
3 1 0.512725 0.00974023 0.504132
4 1 0.486637 0.499712 -0.0140327
ITEM: TIMESTEP
13
ITEM: NUMBER OF ATOMS
4
ITEM: BOX BOUNDS pp pp pp
0.0000000000000000e+00 4.0999999999999996e+00
0.0000000000000000e+00 4.0999999999999996e+00
0.0000000000000000e+00 4.0999999999999996e+00
ITEM: ATOMS id type xs ys zs
1 1 -0.00306823 -0.014273 0.018121
2 1 0.00197552 0.500805 0.496036
3 1 0.518645 0.0207344 0.507986
4 1 0.482448 0.492733 -0.0221431
ITEM: TIMESTEP
14
ITEM: NUMBER OF ATOMS
4
ITEM: BOX BOUNDS pp pp pp
0.0000000000000000e+00 4.0999999999999996e+00
0.0000000000000000e+00 4.0999999999999996e+00
0.0000000000000000e+00 4.0999999999999996e+00
ITEM: ATOMS id type xs ys zs
1 1 -0.00435195 -0.0114753 0.0193764
2 1 0.00178943 0.495295 0.497653
3 1 0.522741 0.0292141 0.510744
4 1 0.479821 0.486966 -0.0277738
ITEM: TIMESTEP
15
ITEM: NUMBER OF ATOMS
4
ITEM: BOX BOUNDS pp pp pp
0.0000000000000000e+00 4.0999999999999996e+00
0.0000000000000000e+00 4.0999999999999996e+00
0.0000000000000000e+00 4.0999999999999996e+00
ITEM: ATOMS id type xs ys zs
1 1 -0.00502531 -0.0088607 0.0193709
2 1 0.00163204 0.491556 0.498852
3 1 0.524576 0.0334601 0.511736
4 1 0.478817 0.483844 -0.0299583
ITEM: TIMESTEP
16
ITEM: NUMBER OF ATOMS
4
ITEM: BOX BOUNDS pp pp pp
0.0000000000000000e+00 4.0999999999999996e+00
0.0000000000000000e+00 4.0999999999999996e+00
0.0000000000000000e+00 4.0999999999999996e+00
ITEM: ATOMS id type xs ys zs
1 1 -0.00496677 -0.00719517 0.0182749
2 1 0.00161019 0.490492 0.499328
3 1 0.523927 0.0324928 0.510629
4 1 0.479429 0.48421 -0.0282321
ITEM: TIMESTEP
17
ITEM: NUMBER OF ATOMS
4
ITEM: BOX BOUNDS pp pp pp
0.0000000000000000e+00 4.0999999999999996e+00
0.0000000000000000e+00 4.0999999999999996e+00
0.0000000000000000e+00 4.0999999999999996e+00
ITEM: ATOMS id type xs ys zs
1 1 -0.00418007 -0.00668675 0.016133
2 1 0.00172698 0.492268 0.499087
3 1 0.520821 0.0263605 0.507594
4 1 0.481632 0.488059 -0.0228138
ITEM: TIMESTEP
18
ITEM: NUMBER OF ATOMS
4
ITEM: BOX BOUNDS pp pp pp
0.0000000000000000e+00 4.0999999999999996e+00
0.0000000000000000e+00 4.0999999999999996e+00
0.0000000000000000e+00 4.0999999999999996e+00
ITEM: ATOMS id type xs ys zs
1 1 -0.00279491 -0.00695893 0.0128809
2 1 0.00187813 0.496283 0.498416
3 1 0.515549 0.0161205 0.50325
4 1 0.485367 0.494556 -0.0145466
ITEM: TIMESTEP
19
ITEM: NUMBER OF ATOMS
4
ITEM: BOX BOUNDS pp pp pp
0.0000000000000000e+00 4.0999999999999996e+00
0.0000000000000000e+00 4.0999999999999996e+00
0.0000000000000000e+00 4.0999999999999996e+00
ITEM: ATOMS id type xs ys zs
1 1 -0.0010506 -0.00720008 0.00844154
2 1 0.00191084 0.501357 0.497772
3 1 0.508658 0.00356311 0.498443
4 1 0.490482 0.50228 -0.00465645
ITEM: TIMESTEP
20
ITEM: NUMBER OF ATOMS
4
ITEM: BOX BOUNDS pp pp pp
0.0000000000000000e+00 4.0999999999999996e+00
0.0000000000000000e+00 4.0999999999999996e+00
0.0000000000000000e+00 4.0999999999999996e+00
ITEM: ATOMS id type xs ys zs
1 1 0.000747637 -0.0064462 0.0028504
2 1 0.00168686 0.506051 0.497625
3 1 0.500916 -0.00914685 0.494049
4 1 0.496649 0.509542 0.00547559
ITEM: TIMESTEP
21
ITEM: NUMBER OF ATOMS
4
ITEM: BOX BOUNDS pp pp pp
0.0000000000000000e+00 4.0999999999999996e+00
0.0000000000000000e+00 4.0999999999999996e+00
0.0000000000000000e+00 4.0999999999999996e+00
ITEM: ATOMS id type xs ys zs
1 1 0.00229979 -0.00391347 -0.00365363
2 1 0.00111403 0.50903 0.498319
3 1 0.493226 -0.0198523 0.490851
4 1 0.50336 0.514736 0.0144831
ITEM: TIMESTEP
22
ITEM: NUMBER OF ATOMS
4
ITEM: BOX BOUNDS pp pp pp
0.0000000000000000e+00 4.0999999999999996e+00
0.0000000000000000e+00 4.0999999999999996e+00
0.0000000000000000e+00 4.0999999999999996e+00
ITEM: ATOMS id type xs ys zs
1 1 0.00338242 0.000724741 -0.0105977
2 1 0.0001646 0.509394 0.499972
3 1 0.486429 -0.0268291 0.489414
4 1 0.510024 0.51671 0.021212
ITEM: TIMESTEP
23
ITEM: NUMBER OF ATOMS
4
ITEM: BOX BOUNDS pp pp pp
0.0000000000000000e+00 4.0999999999999996e+00
0.0000000000000000e+00 4.0999999999999996e+00
0.0000000000000000e+00 4.0999999999999996e+00
ITEM: ATOMS id type xs ys zs
1 1 0.00388492 0.00718819 -0.0172909
2 1 -0.001096 0.506913 0.502421
3 1 0.481163 -0.0291587 0.489933
4 1 0.516048 0.515058 0.0249375
ITEM: TIMESTEP
24
ITEM: NUMBER OF ATOMS
4
ITEM: BOX BOUNDS pp pp pp
0.0000000000000000e+00 4.0999999999999996e+00
0.0000000000000000e+00 4.0999999999999996e+00
0.0000000000000000e+00 4.0999999999999996e+00
ITEM: ATOMS id type xs ys zs
1 1 0.0038071 0.0145771 -0.0228837
2 1 -0.00248988 0.50211 0.50523
3 1 0.477836 -0.0269182 0.492141
4 1 0.520846 0.510231 0.0255132
ITEM: TIMESTEP
25
ITEM: NUMBER OF ATOMS
4
ITEM: BOX BOUNDS pp pp pp
0.0000000000000000e+00 4.0999999999999996e+00
0.0000000000000000e+00 4.0999999999999996e+00
0.0000000000000000e+00 4.0999999999999996e+00
ITEM: ATOMS id type xs ys zs
1 1 0.00324686 0.0214951 -0.026475
2 1 -0.00375595 0.496176 0.507751
3 1 0.476646 -0.0210959 0.495384
4 1 0.523863 0.503425 0.0233399
ITEM: TIMESTEP
26
ITEM: NUMBER OF ATOMS
4
ITEM: BOX BOUNDS pp pp pp
0.0000000000000000e+00 4.0999999999999996e+00
0.0000000000000000e+00 4.0999999999999996e+00
0.0000000000000000e+00 4.0999999999999996e+00
ITEM: ATOMS id type xs ys zs
1 1 0.00238894 0.0263162 -0.0272641
2 1 -0.00462304 0.490685 0.509256
3 1 0.47761 -0.013253 0.498855
4 1 0.524624 0.496252 0.0191528
ITEM: TIMESTEP
27
ITEM: NUMBER OF ATOMS
4
ITEM: BOX BOUNDS pp pp pp
0.0000000000000000e+00 4.0999999999999996e+00
0.0000000000000000e+00 4.0999999999999996e+00
0.0000000000000000e+00 4.0999999999999996e+00
ITEM: ATOMS id type xs ys zs
1 1 0.00146899 0.0275771 -0.0247439
2 1 -0.00488124 0.487169 0.509145
3 1 0.480575 -0.00508499 0.501832
4 1 0.522837 0.490339 0.013767
ITEM: TIMESTEP
28
ITEM: NUMBER OF ATOMS
4
ITEM: BOX BOUNDS pp pp pp
0.0000000000000000e+00 4.0999999999999996e+00
0.0000000000000000e+00 4.0999999999999996e+00
0.0000000000000000e+00 4.0999999999999996e+00
ITEM: ATOMS id type xs ys zs
1 1 0.000695697 0.0244016 -0.0188929
2 1 -0.00442369 0.486683 0.50717
3 1 0.48523 0.00196241 0.503831
4 1 0.518498 0.486953 0.00789199
ITEM: TIMESTEP
29
ITEM: NUMBER OF ATOMS
4
ITEM: BOX BOUNDS pp pp pp
0.0000000000000000e+00 4.0999999999999996e+00
0.0000000000000000e+00 4.0999999999999996e+00
0.0000000000000000e+00 4.0999999999999996e+00
ITEM: ATOMS id type xs ys zs
1 1 0.000170896 0.0167959 -0.0102679
2 1 -0.003266 0.489517 0.503562
3 1 0.491129 0.00695025 0.504659
4 1 0.511966 0.486737 0.00204694
ITEM: TIMESTEP
30
ITEM: NUMBER OF ATOMS
4
ITEM: BOX BOUNDS pp pp pp
0.0000000000000000e+00 4.0999999999999996e+00
0.0000000000000000e+00 4.0999999999999996e+00
0.0000000000000000e+00 4.0999999999999996e+00
ITEM: ATOMS id type xs ys zs
1 1 -0.00012615 0.00570832 6.20784e-05
2 1 -0.00155389 0.495158 0.498947
3 1 0.497741 0.0095669 0.504426
4 1 0.503939 0.489566 -0.00343431
ITEM: TIMESTEP
31
ITEM: NUMBER OF ATOMS
4
ITEM: BOX BOUNDS pp pp pp
0.0000000000000000e+00 4.0999999999999996e+00
0.0000000000000000e+00 4.0999999999999996e+00
0.0000000000000000e+00 4.0999999999999996e+00
ITEM: ATOMS id type xs ys zs
1 1 -0.000289278 -0.00713035 0.0106957
2 1 0.000448571 0.502425 0.494167
3 1 0.504505 0.0101253 0.503488
4 1 0.495336 0.49458 -0.00835099
ITEM: TIMESTEP
32
ITEM: NUMBER OF ATOMS
4
ITEM: BOX BOUNDS pp pp pp
0.0000000000000000e+00 4.0999999999999996e+00
0.0000000000000000e+00 4.0999999999999996e+00
0.0000000000000000e+00 4.0999999999999996e+00
ITEM: ATOMS id type xs ys zs
1 1 -0.000434617 -0.0195368 0.0201408
2 1 0.00240778 0.509698 0.490125
3 1 0.51087 0.00943745 0.502345
4 1 0.487157 0.500402 -0.0126116
ITEM: TIMESTEP
33
ITEM: NUMBER OF ATOMS
4
ITEM: BOX BOUNDS pp pp pp
0.0000000000000000e+00 4.0999999999999996e+00
0.0000000000000000e+00 4.0999999999999996e+00
0.0000000000000000e+00 4.0999999999999996e+00
ITEM: ATOMS id type xs ys zs
1 1 -0.000683537 -0.0292976 0.0270553
2 1 0.00399951 0.515234 0.487674
3 1 0.516335 0.00854598 0.501488
4 1 0.480349 0.505518 -0.0162174
ITEM: TIMESTEP
34
ITEM: NUMBER OF ATOMS
4
ITEM: BOX BOUNDS pp pp pp
0.0000000000000000e+00 4.0999999999999996e+00
0.0000000000000000e+00 4.0999999999999996e+00
0.0000000000000000e+00 4.0999999999999996e+00
ITEM: ATOMS id type xs ys zs
1 1 -0.00114687 -0.0346036 0.0304462
2 1 0.00497959 0.51758 0.487451
3 1 0.520469 0.00836389 0.501256
4 1 0.475698 0.50866 -0.019153
ITEM: TIMESTEP
35
ITEM: NUMBER OF ATOMS
4
ITEM: BOX BOUNDS pp pp pp
0.0000000000000000e+00 4.0999999999999996e+00
0.0000000000000000e+00 4.0999999999999996e+00
0.0000000000000000e+00 4.0999999999999996e+00
ITEM: ATOMS id type xs ys zs
1 1 -0.00186562 -0.0344712 0.029883
2 1 0.00522107 0.516002 0.489628
3 1 0.522923 0.00935325 0.501733
4 1 0.473722 0.509116 -0.0212443
ITEM: TIMESTEP
36
ITEM: NUMBER OF ATOMS
4
ITEM: BOX BOUNDS pp pp pp
0.0000000000000000e+00 4.0999999999999996e+00
0.0000000000000000e+00 4.0999999999999996e+00
0.0000000000000000e+00 4.0999999999999996e+00
ITEM: ATOMS id type xs ys zs
1 1 -0.00274474 -0.0290047 0.0256299
2 1 0.004722 0.510756 0.493755
3 1 0.523439 0.0113525 0.502715
4 1 0.474584 0.506897 -0.0220997
ITEM: TIMESTEP
37
ITEM: NUMBER OF ATOMS
4
ITEM: BOX BOUNDS pp pp pp
0.0000000000000000e+00 4.0999999999999996e+00
0.0000000000000000e+00 4.0999999999999996e+00
0.0000000000000000e+00 4.0999999999999996e+00
ITEM: ATOMS id type xs ys zs
1 1 -0.0035583 -0.0193288 0.018532
2 1 0.00360043 0.502998 0.498903
3 1 0.521867 0.0136017 0.503755
4 1 0.47809 0.502729 -0.0211901
ITEM: TIMESTEP
38
ITEM: NUMBER OF ATOMS
4
ITEM: BOX BOUNDS pp pp pp
0.0000000000000000e+00 4.0999999999999996e+00
0.0000000000000000e+00 4.0999999999999996e+00
0.0000000000000000e+00 4.0999999999999996e+00
ITEM: ATOMS id type xs ys zs
1 1 -0.00403655 -0.00726039 0.00973993
2 1 0.0020838 0.494444 0.504004
3 1 0.518187 0.0149607 0.504293
4 1 0.483766 0.497855 -0.0180372
ITEM: TIMESTEP
39
ITEM: NUMBER OF ATOMS
4
ITEM: BOX BOUNDS pp pp pp
0.0000000000000000e+00 4.0999999999999996e+00
0.0000000000000000e+00 4.0999999999999996e+00
0.0000000000000000e+00 4.0999999999999996e+00
ITEM: ATOMS id type xs ys zs
1 1 -0.00396657 0.00507462 0.000491692
2 1 0.000474138 0.486949 0.508124
3 1 0.512544 0.014264 0.503826
4 1 0.490948 0.493713 -0.012442
ITEM: TIMESTEP
40
ITEM: NUMBER OF ATOMS
4
ITEM: BOX BOUNDS pp pp pp
0.0000000000000000e+00 4.0999999999999996e+00
0.0000000000000000e+00 4.0999999999999996e+00
0.0000000000000000e+00 4.0999999999999996e+00
ITEM: ATOMS id type xs ys zs
1 1 -0.00324305 0.0156087 -0.00802014
2 1 -0.000932 0.482118 0.510586
3 1 0.505324 0.0107064 0.502092
4 1 0.498852 0.491567 -0.00465742
ITEM: TIMESTEP
41
ITEM: NUMBER OF ATOMS
4
ITEM: BOX BOUNDS pp pp pp
0.0000000000000000e+00 4.0999999999999996e+00
0.0000000000000000e+00 4.0999999999999996e+00
0.0000000000000000e+00 4.0999999999999996e+00
ITEM: ATOMS id type xs ys zs
1 1 -0.00188042 0.0227209 -0.0148201
2 1 -0.00193743 0.480992 0.511031
3 1 0.49718 0.00413181 0.499198
4 1 0.506638 0.492156 0.00459089
ITEM: TIMESTEP
42
ITEM: NUMBER OF ATOMS
4
ITEM: BOX BOUNDS pp pp pp
0.0000000000000000e+00 4.0999999999999996e+00
0.0000000000000000e+00 4.0999999999999996e+00
0.0000000000000000e+00 4.0999999999999996e+00
ITEM: ATOMS id type xs ys zs
1 1 -2.11743e-05 0.0255918 -0.0193473
2 1 -0.00248144 0.483797 0.5095
3 1 0.488977 -0.00485606 0.495626
4 1 0.513526 0.495468 0.0142213
ITEM: TIMESTEP
43
ITEM: NUMBER OF ATOMS
4
ITEM: BOX BOUNDS pp pp pp
0.0000000000000000e+00 4.0999999999999996e+00
0.0000000000000000e+00 4.0999999999999996e+00
0.0000000000000000e+00 4.0999999999999996e+00
ITEM: ATOMS id type xs ys zs
1 1 0.0020678 0.0243633 -0.0215293
2 1 -0.00260879 0.489864 0.50648
3 1 0.481614 -0.0149588 0.492095
4 1 0.518927 0.500732 0.0229548
ITEM: TIMESTEP
44
ITEM: NUMBER OF ATOMS
4
ITEM: BOX BOUNDS pp pp pp
0.0000000000000000e+00 4.0999999999999996e+00
0.0000000000000000e+00 4.0999999999999996e+00
0.0000000000000000e+00 4.0999999999999996e+00
ITEM: ATOMS id type xs ys zs
1 1 0.00403343 0.020015 -0.0216807
2 1 -0.00242862 0.497761 0.502803
3 1 0.475879 -0.024377 0.489408
4 1 0.522517 0.506601 0.0294704
ITEM: TIMESTEP
45
ITEM: NUMBER OF ATOMS
4
ITEM: BOX BOUNDS pp pp pp
0.0000000000000000e+00 4.0999999999999996e+00
0.0000000000000000e+00 4.0999999999999996e+00
0.0000000000000000e+00 4.0999999999999996e+00
ITEM: ATOMS id type xs ys zs
1 1 0.00551291 0.0140159 -0.0202968
2 1 -0.00210069 0.505647 0.499393
3 1 0.472401 -0.0311294 0.48832
4 1 0.524187 0.511466 0.032584
ITEM: TIMESTEP
46
ITEM: NUMBER OF ATOMS
4
ITEM: BOX BOUNDS pp pp pp
0.0000000000000000e+00 4.0999999999999996e+00
0.0000000000000000e+00 4.0999999999999996e+00
0.0000000000000000e+00 4.0999999999999996e+00
ITEM: ATOMS id type xs ys zs
1 1 0.00621921 0.00789569 -0.0178497
2 1 -0.00181616 0.51174 0.496985
3 1 0.47164 -0.0335164 0.489354
4 1 0.523957 0.513881 0.0315103
ITEM: TIMESTEP
47
ITEM: NUMBER OF ATOMS
4
ITEM: BOX BOUNDS pp pp pp
0.0000000000000000e+00 4.0999999999999996e+00
0.0000000000000000e+00 4.0999999999999996e+00
0.0000000000000000e+00 4.0999999999999996e+00
ITEM: ATOMS id type xs ys zs
1 1 0.00600266 0.00286111 -0.0146526
2 1 -0.00172555 0.514763 0.495937
3 1 0.473821 -0.0306113 0.492571
4 1 0.521902 0.512987 0.0261437
ITEM: TIMESTEP
48
ITEM: NUMBER OF ATOMS
4
ITEM: BOX BOUNDS pp pp pp
0.0000000000000000e+00 4.0999999999999996e+00
0.0000000000000000e+00 4.0999999999999996e+00
0.0000000000000000e+00 4.0999999999999996e+00
ITEM: ATOMS id type xs ys zs
1 1 0.00487852 -0.000457433 -0.0108143
2 1 -0.00184695 0.514241 0.496176
3 1 0.478847 -0.0225413 0.497476
4 1 0.518121 0.508757 0.0171619
ITEM: TIMESTEP
49
ITEM: NUMBER OF ATOMS
4
ITEM: BOX BOUNDS pp pp pp
0.0000000000000000e+00 4.0999999999999996e+00
0.0000000000000000e+00 4.0999999999999996e+00
0.0000000000000000e+00 4.0999999999999996e+00
ITEM: ATOMS id type xs ys zs
1 1 0.00302773 -0.00208712 -0.00629643
2 1 -0.0020487 0.510571 0.49728
3 1 0.486247 -0.0104488 0.503157
4 1 0.512774 0.501965 0.00585878
ITEM: TIMESTEP
50
ITEM: NUMBER OF ATOMS
4
ITEM: BOX BOUNDS pp pp pp
0.0000000000000000e+00 4.0999999999999996e+00
0.0000000000000000e+00 4.0999999999999996e+00
0.0000000000000000e+00 4.0999999999999996e+00
ITEM: ATOMS id type xs ys zs
1 1 0.000771251 -0.00261735 -0.00104324
2 1 -0.00212553 0.50487 0.498643
3 1 0.495205 0.00374179 0.508544
4 1 0.50615 0.494005 -0.00614334
ITEM: TIMESTEP
51
ITEM: NUMBER OF ATOMS
4
ITEM: BOX BOUNDS pp pp pp
0.0000000000000000e+00 4.0999999999999996e+00
0.0000000000000000e+00 4.0999999999999996e+00
0.0000000000000000e+00 4.0999999999999996e+00
ITEM: ATOMS id type xs ys zs
1 1 -0.00149431 -0.00296576 0.00489158
2 1 -0.00188805 0.498686 0.499646
3 1 0.504655 0.0176241 0.512596
4 1 0.498727 0.486655 -0.0171333
ITEM: TIMESTEP
52
ITEM: NUMBER OF ATOMS
4
ITEM: BOX BOUNDS pp pp pp
0.0000000000000000e+00 4.0999999999999996e+00
0.0000000000000000e+00 4.0999999999999996e+00
0.0000000000000000e+00 4.0999999999999996e+00
ITEM: ATOMS id type xs ys zs
1 1 -0.00339272 -0.00406682 0.0112775
2 1 -0.00120606 0.493622 0.499814
3 1 0.513507 0.0287418 0.514459
4 1 0.491092 0.481703 -0.0255498
ITEM: TIMESTEP
53
ITEM: NUMBER OF ATOMS
4
ITEM: BOX BOUNDS pp pp pp
0.0000000000000000e+00 4.0999999999999996e+00
0.0000000000000000e+00 4.0999999999999996e+00
0.0000000000000000e+00 4.0999999999999996e+00
ITEM: ATOMS id type xs ys zs
1 1 -0.0046536 -0.00655656 0.0176624
2 1 -2.85027e-05 0.490947 0.498945
3 1 0.520851 0.0351263 0.513647
4 1 0.483831 0.480483 -0.0302544
ITEM: TIMESTEP
54
ITEM: NUMBER OF ATOMS
4
ITEM: BOX BOUNDS pp pp pp
0.0000000000000000e+00 4.0999999999999996e+00
0.0000000000000000e+00 4.0999999999999996e+00
0.0000000000000000e+00 4.0999999999999996e+00
ITEM: ATOMS id type xs ys zs
1 1 -0.00514811 -0.0105272 0.0233381
2 1 0.00157619 0.491281 0.497198
3 1 0.526025 0.0357884 0.510268
4 1 0.477547 0.483458 -0.0308043
ITEM: TIMESTEP
55
ITEM: NUMBER OF ATOMS
4
ITEM: BOX BOUNDS pp pp pp
0.0000000000000000e+00 4.0999999999999996e+00
0.0000000000000000e+00 4.0999999999999996e+00
0.0000000000000000e+00 4.0999999999999996e+00
ITEM: ATOMS id type xs ys zs
1 1 -0.00488107 -0.015415 0.0273897
2 1 0.00338162 0.494402 0.495085
3 1 0.528613 0.0309585 0.505097
4 1 0.472886 0.490055 -0.0275714
ITEM: TIMESTEP
56
ITEM: NUMBER OF ATOMS
4
ITEM: BOX BOUNDS pp pp pp
0.0000000000000000e+00 4.0999999999999996e+00
0.0000000000000000e+00 4.0999999999999996e+00
0.0000000000000000e+00 4.0999999999999996e+00
ITEM: ATOMS id type xs ys zs
1 1 -0.00398012 -0.0200638 0.0288595
2 1 0.00503291 0.499292 0.493353
3 1 0.528452 0.0219249 0.499328
4 1 0.470496 0.498847 -0.0215408
ITEM: TIMESTEP
57
ITEM: NUMBER OF ATOMS
4
ITEM: BOX BOUNDS pp pp pp
0.0000000000000000e+00 4.0999999999999996e+00
0.0000000000000000e+00 4.0999999999999996e+00
0.0000000000000000e+00 4.0999999999999996e+00
ITEM: ATOMS id type xs ys zs
1 1 -0.00269523 -0.0229755 0.0269852
2 1 0.00614791 0.504418 0.492781
3 1 0.525633 0.0105977 0.494164
4 1 0.470914 0.507959 -0.0139305
ITEM: TIMESTEP
58
ITEM: NUMBER OF ATOMS
4
ITEM: BOX BOUNDS pp pp pp
0.0000000000000000e+00 4.0999999999999996e+00
0.0000000000000000e+00 4.0999999999999996e+00
0.0000000000000000e+00 4.0999999999999996e+00
ITEM: ATOMS id type xs ys zs
1 1 -0.00136184 -0.02272 0.021441
2 1 0.00642443 0.50818 0.493924
3 1 0.520505 -0.000947509 0.490526
4 1 0.474433 0.515488 -0.00589071
ITEM: TIMESTEP
59
ITEM: NUMBER OF ATOMS
4
ITEM: BOX BOUNDS pp pp pp
0.0000000000000000e+00 4.0999999999999996e+00
0.0000000000000000e+00 4.0999999999999996e+00
0.0000000000000000e+00 4.0999999999999996e+00
ITEM: ATOMS id type xs ys zs
1 1 -0.000286816 -0.0184005 0.0125161
2 1 0.00570854 0.50937 0.496894
3 1 0.513633 -0.0108301 0.488941
4 1 0.480945 0.519861 0.00164861
ITEM: TIMESTEP
60
ITEM: NUMBER OF ATOMS
4
ITEM: BOX BOUNDS pp pp pp
0.0000000000000000e+00 4.0999999999999996e+00
0.0000000000000000e+00 4.0999999999999996e+00
0.0000000000000000e+00 4.0999999999999996e+00
ITEM: ATOMS id type xs ys zs
1 1 0.000379908 -0.00999874 0.001161
2 1 0.00402782 0.507484 0.501285
3 1 0.505719 -0.0176522 0.489509
4 1 0.489874 0.520167 0.00804515
ITEM: TIMESTEP
61
ITEM: NUMBER OF ATOMS
4
ITEM: BOX BOUNDS pp pp pp
0.0000000000000000e+00 4.0999999999999996e+00
0.0000000000000000e+00 4.0999999999999996e+00
0.0000000000000000e+00 4.0999999999999996e+00
ITEM: ATOMS id type xs ys zs
1 1 0.000674321 0.00153031 -0.0111304
2 1 0.00160047 0.502821 0.506274
3 1 0.497473 -0.0207496 0.491879
4 1 0.500252 0.516399 0.0129768
ITEM: TIMESTEP
62
ITEM: NUMBER OF ATOMS
4
ITEM: BOX BOUNDS pp pp pp
0.0000000000000000e+00 4.0999999999999996e+00
0.0000000000000000e+00 4.0999999999999996e+00
0.0000000000000000e+00 4.0999999999999996e+00
ITEM: ATOMS id type xs ys zs
1 1 0.000742178 0.0144253 -0.0225897
2 1 -0.00119005 0.496433 0.510828
3 1 0.489541 -0.0203488 0.495315
4 1 0.510907 0.50949 0.0164472
ITEM: TIMESTEP
63
ITEM: NUMBER OF ATOMS
4
ITEM: BOX BOUNDS pp pp pp
0.0000000000000000e+00 4.0999999999999996e+00
0.0000000000000000e+00 4.0999999999999996e+00
0.0000000000000000e+00 4.0999999999999996e+00
ITEM: ATOMS id type xs ys zs
1 1 0.000758796 0.0264436 -0.0314969
2 1 -0.00387127 0.48996 0.51387
3 1 0.482494 -0.0174787 0.498886
4 1 0.520618 0.501075 0.0187411
ITEM: TIMESTEP
64
ITEM: NUMBER OF ATOMS
4
ITEM: BOX BOUNDS pp pp pp
0.0000000000000000e+00 4.0999999999999996e+00
0.0000000000000000e+00 4.0999999999999996e+00
0.0000000000000000e+00 4.0999999999999996e+00
ITEM: ATOMS id type xs ys zs
1 1 0.00091457 0.0352477 -0.0364285
2 1 -0.00598852 0.485279 0.514458
3 1 0.476841 -0.013588 0.501723
4 1 0.528233 0.493062 0.0202479
ITEM: TIMESTEP
65
ITEM: NUMBER OF ATOMS
4
ITEM: BOX BOUNDS pp pp pp
0.0000000000000000e+00 4.0999999999999996e+00
0.0000000000000000e+00 4.0999999999999996e+00
0.0000000000000000e+00 4.0999999999999996e+00
ITEM: ATOMS id type xs ys zs
1 1 0.00140011 0.0389117 -0.0365159
2 1 -0.00719867 0.483958 0.512072
3 1 0.473006 -0.0100466 0.50324
4 1 0.532792 0.487177 0.0212038
ITEM: TIMESTEP
66
ITEM: NUMBER OF ATOMS
4
ITEM: BOX BOUNDS pp pp pp
0.0000000000000000e+00 4.0999999999999996e+00
0.0000000000000000e+00 4.0999999999999996e+00
0.0000000000000000e+00 4.0999999999999996e+00
ITEM: ATOMS id type xs ys zs
1 1 0.00230933 0.0364758 -0.0317364
2 1 -0.00732549 0.486706 0.506945
3 1 0.47132 -0.00773755 0.503287
4 1 0.533696 0.484556 0.0215048
ITEM: TIMESTEP
67
ITEM: NUMBER OF ATOMS
4
ITEM: BOX BOUNDS pp pp pp
0.0000000000000000e+00 4.0999999999999996e+00
0.0000000000000000e+00 4.0999999999999996e+00
0.0000000000000000e+00 4.0999999999999996e+00
ITEM: ATOMS id type xs ys zs
1 1 0.00352065 0.028218 -0.0229627
2 1 -0.00637683 0.493137 0.500105
3 1 0.472003 -0.00684389 0.50217
4 1 0.530853 0.485489 0.0206874
ITEM: TIMESTEP
68
ITEM: NUMBER OF ATOMS
4
ITEM: BOX BOUNDS pp pp pp
0.0000000000000000e+00 4.0999999999999996e+00
0.0000000000000000e+00 4.0999999999999996e+00
0.0000000000000000e+00 4.0999999999999996e+00
ITEM: ATOMS id type xs ys zs
1 1 0.00469415 0.015507 -0.0116617
2 1 -0.00454436 0.501959 0.493003
3 1 0.475164 -0.00686303 0.500549
4 1 0.524686 0.489397 0.0181095
ITEM: TIMESTEP
69
ITEM: NUMBER OF ATOMS
4
ITEM: BOX BOUNDS pp pp pp
0.0000000000000000e+00 4.0999999999999996e+00
0.0000000000000000e+00 4.0999999999999996e+00
0.0000000000000000e+00 4.0999999999999996e+00
ITEM: ATOMS id type xs ys zs
1 1 0.00541594 0.000469608 0.000470337
2 1 -0.002194 0.511333 0.487037
3 1 0.480784 -0.00682336 0.499241
4 1 0.515994 0.495021 0.0132515
ITEM: TIMESTEP
70
ITEM: NUMBER OF ATOMS
4
ITEM: BOX BOUNDS pp pp pp
0.0000000000000000e+00 4.0999999999999996e+00
0.0000000000000000e+00 4.0999999999999996e+00
0.0000000000000000e+00 4.0999999999999996e+00
ITEM: ATOMS id type xs ys zs
1 1 0.00536262 -0.0143378 0.011713
2 1 0.000192715 0.519218 0.483317
3 1 0.488635 -0.00562462 0.498967
4 1 0.50581 0.500745 0.00600297
ITEM: TIMESTEP
71
ITEM: NUMBER OF ATOMS
4
ITEM: BOX BOUNDS pp pp pp
0.0000000000000000e+00 4.0999999999999996e+00
0.0000000000000000e+00 4.0999999999999996e+00
0.0000000000000000e+00 4.0999999999999996e+00
ITEM: ATOMS id type xs ys zs
1 1 0.00436851 -0.0263533 0.0205232
2 1 0.00216455 0.52374 0.482593
3 1 0.498164 -0.0023979 0.500094
4 1 0.495303 0.505011 -0.00321062
ITEM: TIMESTEP
72
ITEM: NUMBER OF ATOMS
4
ITEM: BOX BOUNDS pp pp pp
0.0000000000000000e+00 4.0999999999999996e+00
0.0000000000000000e+00 4.0999999999999996e+00
0.0000000000000000e+00 4.0999999999999996e+00
ITEM: ATOMS id type xs ys zs
1 1 0.00243782 -0.033593 0.025886
2 1 0.00345006 0.523638 0.485131
3 1 0.508472 0.00319589 0.502475
4 1 0.48564 0.506759 -0.013492
ITEM: TIMESTEP
73
ITEM: NUMBER OF ATOMS
4
ITEM: BOX BOUNDS pp pp pp
0.0000000000000000e+00 4.0999999999999996e+00
0.0000000000000000e+00 4.0999999999999996e+00
0.0000000000000000e+00 4.0999999999999996e+00
ITEM: ATOMS id type xs ys zs
1 1 -0.000241395 -0.0351562 0.0275829
2 1 0.00399167 0.518681 0.490481
3 1 0.518473 0.010781 0.505504
4 1 0.477777 0.505694 -0.0235683
ITEM: TIMESTEP
74
ITEM: NUMBER OF ATOMS
4
ITEM: BOX BOUNDS pp pp pp
0.0000000000000000e+00 4.0999999999999996e+00
0.0000000000000000e+00 4.0999999999999996e+00
0.0000000000000000e+00 4.0999999999999996e+00
ITEM: ATOMS id type xs ys zs
1 1 -0.00328375 -0.0313939 0.0261593
2 1 0.00387633 0.509812 0.497431
3 1 0.527103 0.0192391 0.508326
4 1 0.472304 0.502343 -0.0319172
ITEM: TIMESTEP
75
ITEM: NUMBER OF ATOMS
4
ITEM: BOX BOUNDS pp pp pp
0.0000000000000000e+00 4.0999999999999996e+00
0.0000000000000000e+00 4.0999999999999996e+00
0.0000000000000000e+00 4.0999999999999996e+00
ITEM: ATOMS id type xs ys zs
1 1 -0.00614872 -0.0236741 0.0225948
2 1 0.00327529 0.498906 0.504357
3 1 0.53342 0.026853 0.51003
4 1 0.469454 0.497916 -0.0369818
ITEM: TIMESTEP
76
ITEM: NUMBER OF ATOMS
4
ITEM: BOX BOUNDS pp pp pp
0.0000000000000000e+00 4.0999999999999996e+00
0.0000000000000000e+00 4.0999999999999996e+00
0.0000000000000000e+00 4.0999999999999996e+00
ITEM: ATOMS id type xs ys zs
1 1 -0.00826212 -0.0139178 0.0179075
2 1 0.00245241 0.488272 0.509759
3 1 0.536608 0.031661 0.509824
4 1 0.469202 0.493985 -0.0374911
ITEM: TIMESTEP
77
ITEM: NUMBER OF ATOMS
4
ITEM: BOX BOUNDS pp pp pp
0.0000000000000000e+00 4.0999999999999996e+00
0.0000000000000000e+00 4.0999999999999996e+00
0.0000000000000000e+00 4.0999999999999996e+00
ITEM: ATOMS id type xs ys zs
1 1 -0.0091677 -0.00411618 0.0128974
2 1 0.00176004 0.48011 0.512673
3 1 0.536045 0.0319984 0.507264
4 1 0.471362 0.492008 -0.0328339
ITEM: TIMESTEP
78
ITEM: NUMBER OF ATOMS
4
ITEM: BOX BOUNDS pp pp pp
0.0000000000000000e+00 4.0999999999999996e+00
0.0000000000000000e+00 4.0999999999999996e+00
0.0000000000000000e+00 4.0999999999999996e+00
ITEM: ATOMS id type xs ys zs
1 1 -0.00864066 0.0040804 0.00803055
2 1 0.00150465 0.476011 0.512811
3 1 0.53147 0.0270295 0.502491
4 1 0.475666 0.492879 -0.0233318
ITEM: TIMESTEP
79
ITEM: NUMBER OF ATOMS
4
ITEM: BOX BOUNDS pp pp pp
0.0000000000000000e+00 4.0999999999999996e+00
0.0000000000000000e+00 4.0999999999999996e+00
0.0000000000000000e+00 4.0999999999999996e+00
ITEM: ATOMS id type xs ys zs
1 1 -0.00673486 0.00965986 0.00342017
2 1 0.00174988 0.476624 0.51053
3 1 0.523175 0.0170131 0.49629
4 1 0.48181 0.496703 -0.0102392
ITEM: TIMESTEP
80
ITEM: NUMBER OF ATOMS
4
ITEM: BOX BOUNDS pp pp pp
0.0000000000000000e+00 4.0999999999999996e+00
0.0000000000000000e+00 4.0999999999999996e+00
0.0000000000000000e+00 4.0999999999999996e+00
ITEM: ATOMS id type xs ys zs
1 1 -0.00377587 0.0123827 -0.00109092
2 1 0.00227097 0.481561 0.50667
3 1 0.512057 0.00325093 0.489892
4 1 0.489448 0.502806 0.00452881
ITEM: TIMESTEP
81
ITEM: NUMBER OF ATOMS
4
ITEM: BOX BOUNDS pp pp pp
0.0000000000000000e+00 4.0999999999999996e+00