
     Program PWSCF v.6.0 (svn rev. 13079) starts on 21Jun2018 at 12:32:25 

     This program is part of the open-source Quantum ESPRESSO suite
     for quantum simulation of materials; please cite
         "P. Giannozzi et al., J. Phys.:Condens. Matter 21 395502 (2009);
          URL http://www.quantum-espresso.org", 
     in publications or presentations arising from this work. More details at
     http://www.quantum-espresso.org/quote

     Serial version
     Reading input from /Users/simonbatzner1/Desktop/Research/Research_Code/ML-electron-density/AIMD/step_Al_10/pwscf.in
Warning: card &IONS ignored
Warning: card / ignored
Warning: card &CELL ignored
Warning: card / ignored

     Current dimensions of program PWSCF are:
     Max number of different atomic species (ntypx) = 10
     Max number of k-points (npk) =  40000
     Max angular momentum in pseudopotentials (lmaxx) =  3
     Message from routine setup:
     no reason to have ecutrho>4*ecutwfc

     G-vector sticks info
     --------------------
     sticks:   dense  smooth     PW     G-vecs:    dense   smooth      PW
     Sum         185      97     21                 1935      739      81



     bravais-lattice index     =            0
     lattice parameter (alat)  =       7.7479  a.u.
     unit-cell volume          =     465.1020 (a.u.)^3
     number of atoms/cell      =            4
     number of atomic types    =            1
     number of electrons       =        12.00
     number of Kohn-Sham states=           10
     kinetic-energy cutoff     =       5.0000  Ry
     charge density cutoff     =      40.0000  Ry
     convergence threshold     =      1.0E-07
     mixing beta               =       0.5000
     number of iterations used =            8  plain     mixing
     Exchange-correlation      =  SLA  PZ   NOGX NOGC ( 1  1  0  0 0 0)

     celldm(1)=   7.747877  celldm(2)=   0.000000  celldm(3)=   0.000000
     celldm(4)=   0.000000  celldm(5)=   0.000000  celldm(6)=   0.000000

     crystal axes: (cart. coord. in units of alat)
               a(1) = (   1.000000   0.000000   0.000000 )  
               a(2) = (   0.000000   1.000000   0.000000 )  
               a(3) = (   0.000000   0.000000   1.000000 )  

     reciprocal axes: (cart. coord. in units 2 pi/alat)
               b(1) = (  1.000000  0.000000  0.000000 )  
               b(2) = (  0.000000  1.000000  0.000000 )  
               b(3) = (  0.000000  0.000000  1.000000 )  


     PseudoPot. # 1 for Al read from file:
     /Users/simonbatzner1/QE/qe-6.0/pseudo/Al.pz-vbc.UPF
     MD5 check sum: 614279c88ff8d45c90147292d03ed420
     Pseudo is Norm-conserving, Zval =  3.0
     Generated by new atomic code, or converted to UPF format
     Using radial grid of  171 points,  2 beta functions with: 
                l(1) =   0
                l(2) =   1

     atomic species   valence    mass     pseudopotential
        Al             3.00    26.98154     Al( 1.00)

     No symmetry found



   Cartesian axes

     site n.     atom                  positions (alat units)
         1           Al  tau(   1) = (  -0.0147220   0.0117073  -0.0150000  )
         2           Al  tau(   2) = (   0.0010878   0.4710634   0.5229317  )
         3           Al  tau(   3) = (   0.5289122   0.0045780   0.4982707  )
         4           Al  tau(   4) = (   0.4879976   0.5105854  -0.0076585  )

     number of k points=     1  Methfessel-Paxton smearing, width (Ry)=  0.0200
                       cart. coord. in units 2pi/alat
        k(    1) = (   0.0000000   0.0000000   0.0000000), wk =   2.0000000

     Dense  grid:     1935 G-vectors     FFT dimensions: (  15,  15,  15)

     Smooth grid:      739 G-vectors     FFT dimensions: (  12,  12,  12)

     Estimated max dynamical RAM per process >       1.14Mb

     Initial potential from superposition of free atoms

     starting charge   11.99177, renormalised to   12.00000
     Starting wfc are   16 randomized atomic wfcs

     total cpu time spent up to now is        0.0 secs

     Self-consistent Calculation

     iteration #  1     ecut=     5.00 Ry     beta=0.50
     Davidson diagonalization with overlap
     ethr =  1.00E-02,  avg # of iterations =  2.0

     Threshold (ethr) on eigenvalues was too large:
     Diagonalizing with lowered threshold

     Davidson diagonalization with overlap
     ethr =  6.23E-04,  avg # of iterations =  2.0

     total cpu time spent up to now is        0.0 secs

     total energy              =     -15.90569494 Ry
     Harris-Foulkes estimate   =     -15.92023769 Ry
     estimated scf accuracy    <       0.07440696 Ry

     iteration #  2     ecut=     5.00 Ry     beta=0.50
     Davidson diagonalization with overlap
     ethr =  6.20E-04,  avg # of iterations =  1.0

     total cpu time spent up to now is        0.0 secs

     total energy              =     -15.90816512 Ry
     Harris-Foulkes estimate   =     -15.91462585 Ry
     estimated scf accuracy    <       0.02817921 Ry

     iteration #  3     ecut=     5.00 Ry     beta=0.50
     Davidson diagonalization with overlap
     ethr =  2.35E-04,  avg # of iterations =  1.0

     total cpu time spent up to now is        0.0 secs

     total energy              =     -15.91126110 Ry
     Harris-Foulkes estimate   =     -15.91355562 Ry
     estimated scf accuracy    <       0.01345483 Ry

     iteration #  4     ecut=     5.00 Ry     beta=0.50
     Davidson diagonalization with overlap
     ethr =  1.12E-04,  avg # of iterations =  1.0

     total cpu time spent up to now is        0.0 secs

     total energy              =     -15.91238919 Ry
     Harris-Foulkes estimate   =     -15.91245181 Ry
     estimated scf accuracy    <       0.00054390 Ry

     iteration #  5     ecut=     5.00 Ry     beta=0.50
     Davidson diagonalization with overlap
     ethr =  4.53E-06,  avg # of iterations =  8.0

     total cpu time spent up to now is        0.0 secs

     total energy              =     -15.91243041 Ry
     Harris-Foulkes estimate   =     -15.91243712 Ry
     estimated scf accuracy    <       0.00003211 Ry

     iteration #  6     ecut=     5.00 Ry     beta=0.50
     Davidson diagonalization with overlap
     ethr =  2.68E-07,  avg # of iterations =  1.0

     total cpu time spent up to now is        0.0 secs

     total energy              =     -15.91243399 Ry
     Harris-Foulkes estimate   =     -15.91243494 Ry
     estimated scf accuracy    <       0.00000655 Ry

     iteration #  7     ecut=     5.00 Ry     beta=0.50
     Davidson diagonalization with overlap
     ethr =  5.46E-08,  avg # of iterations =  2.0

     total cpu time spent up to now is        0.1 secs

     total energy              =     -15.91243499 Ry
     Harris-Foulkes estimate   =     -15.91243508 Ry
     estimated scf accuracy    <       0.00000095 Ry

     iteration #  8     ecut=     5.00 Ry     beta=0.50
     Davidson diagonalization with overlap
     ethr =  7.88E-09,  avg # of iterations =  2.0

     total cpu time spent up to now is        0.1 secs

     total energy              =     -15.91243507 Ry
     Harris-Foulkes estimate   =     -15.91243508 Ry
     estimated scf accuracy    <       0.00000013 Ry

     iteration #  9     ecut=     5.00 Ry     beta=0.50
     Davidson diagonalization with overlap
     ethr =  1.06E-09,  avg # of iterations =  2.0

     total cpu time spent up to now is        0.1 secs

     End of self-consistent calculation

          k = 0.0000 0.0000 0.0000 (    81 PWs)   bands (ev):

    -2.8290   4.5483   4.5715   4.6150   6.4050   6.4168   6.4272  12.4296
    12.4770  12.5789

     the Fermi energy is     6.4712 ev

!    total energy              =     -15.91243508 Ry
     Harris-Foulkes estimate   =     -15.91243510 Ry
     estimated scf accuracy    <       0.00000005 Ry

     The total energy is the sum of the following terms:

     one-electron contribution =      11.61674936 Ry
     hartree contribution      =       0.06108864 Ry
     xc contribution           =      -6.33235732 Ry
     ewald contribution        =     -21.24303418 Ry
     smearing contrib. (-TS)   =      -0.01488158 Ry

     convergence has been achieved in   9 iterations

     Forces acting on atoms (Ry/au):

     atom    1 type  1   force =     0.00182351   -0.00305648    0.00430961
     atom    2 type  1   force =     0.00070095    0.00502805   -0.00470671
     atom    3 type  1   force =    -0.00388852   -0.00107768   -0.00078016
     atom    4 type  1   force =     0.00136406   -0.00089389    0.00117726

     Total force =     0.010005     Total SCF correction =     0.000015

     Writing output data file Al.save

     init_run     :      0.01s CPU      0.01s WALL (       1 calls)
     electrons    :      0.03s CPU      0.04s WALL (       1 calls)
     forces       :      0.00s CPU      0.00s WALL (       1 calls)

     Called by init_run:
     wfcinit      :      0.00s CPU      0.00s WALL (       1 calls)
     potinit      :      0.00s CPU      0.00s WALL (       1 calls)

     Called by electrons:
     c_bands      :      0.02s CPU      0.02s WALL (      10 calls)
     sum_band     :      0.00s CPU      0.00s WALL (      10 calls)
     v_of_rho     :      0.00s CPU      0.00s WALL (      10 calls)
     mix_rho      :      0.00s CPU      0.00s WALL (      10 calls)

     Called by c_bands:
     init_us_2    :      0.00s CPU      0.00s WALL (      21 calls)
     cegterg      :      0.02s CPU      0.02s WALL (      10 calls)

     Called by sum_band:

     Called by *egterg:
     h_psi        :      0.01s CPU      0.01s WALL (      33 calls)
     g_psi        :      0.00s CPU      0.00s WALL (      22 calls)
     cdiaghg      :      0.01s CPU      0.01s WALL (      31 calls)

     Called by h_psi:
     h_psi:pot    :      0.01s CPU      0.01s WALL (      33 calls)
     h_psi:calbec :      0.00s CPU      0.00s WALL (      33 calls)
     vloc_psi     :      0.01s CPU      0.01s WALL (      33 calls)
     add_vuspsi   :      0.00s CPU      0.00s WALL (      33 calls)

     General routines
     calbec       :      0.00s CPU      0.00s WALL (      37 calls)
     fft          :      0.00s CPU      0.00s WALL (      71 calls)
     ffts         :      0.00s CPU      0.00s WALL (      20 calls)
     fftw         :      0.01s CPU      0.01s WALL (     598 calls)
     interpolate  :      0.00s CPU      0.00s WALL (      20 calls)
     davcio       :      0.00s CPU      0.00s WALL (       1 calls)


     PWSCF        :     0.10s CPU         0.11s WALL


   This run was terminated on:  12:32:25  21Jun2018            

=------------------------------------------------------------------------------=
   JOB DONE.
=------------------------------------------------------------------------------=
