
     Program PWSCF v.6.0 (svn rev. 13079) starts on 29Aug2018 at  9:38:39 

     This program is part of the open-source Quantum ESPRESSO suite
     for quantum simulation of materials; please cite
         "P. Giannozzi et al., J. Phys.:Condens. Matter 21 395502 (2009);
          URL http://www.quantum-espresso.org", 
     in publications or presentations arising from this work. More details at
     http://www.quantum-espresso.org/quote

     Serial version
     Waiting for input...
     Reading input from standard input
Warning: card &IONS ignored
Warning: card / ignored
Warning: card &CELL ignored
Warning: card / ignored

     Current dimensions of program PWSCF are:
     Max number of different atomic species (ntypx) = 10
     Max number of k-points (npk) =  40000
     Max angular momentum in pseudopotentials (lmaxx) =  3
               file H.pbe-kjpaw.UPF: wavefunction(s)  1S renormalized

     gamma-point specific algorithms are used

     G-vector sticks info
     --------------------
     sticks:   dense  smooth     PW     G-vecs:    dense   smooth      PW
     Sum         717     717    357                14243    14243    5041



     bravais-lattice index     =            0
     lattice parameter (alat)  =       9.4486  a.u.
     unit-cell volume          =     843.5418 (a.u.)^3
     number of atoms/cell      =            2
     number of atomic types    =            1
     number of electrons       =         2.00
     number of Kohn-Sham states=            1
     kinetic-energy cutoff     =      50.0000  Ry
     charge density cutoff     =     100.0000  Ry
     convergence threshold     =      1.0E-07
     mixing beta               =       0.5000
     number of iterations used =            8  plain     mixing
     Exchange-correlation      =  SLA  PW   PBX  PBC ( 1  4  3  4 0 0)

     celldm(1)=   9.448631  celldm(2)=   0.000000  celldm(3)=   0.000000
     celldm(4)=   0.000000  celldm(5)=   0.000000  celldm(6)=   0.000000

     crystal axes: (cart. coord. in units of alat)
               a(1) = (   1.000000   0.000000   0.000000 )  
               a(2) = (   0.000000   1.000000   0.000000 )  
               a(3) = (   0.000000   0.000000   1.000000 )  

     reciprocal axes: (cart. coord. in units 2 pi/alat)
               b(1) = (  1.000000  0.000000  0.000000 )  
               b(2) = (  0.000000  1.000000  0.000000 )  
               b(3) = (  0.000000  0.000000  1.000000 )  


     PseudoPot. # 1 for  H read from file:
     /Users/simonbatzner1/Sci_Software/QE/qe-6.0/pseudo/H.pbe-kjpaw.UPF
     MD5 check sum: f0c5446d8b45f1c04d25babcc032f843
     Pseudo is Projector augmented-wave, Zval =  1.0
     Generated using "atomic" code by A. Dal Corso  (Quantum ESPRESSO distribution)
     Shape of augmentation charge: PSQ
     Using radial grid of  929 points,  2 beta functions with: 
                l(1) =   0
                l(2) =   0
     Q(r) pseudized with 0 coefficients 


     atomic species   valence    mass     pseudopotential
        H              1.00     1.00000      H( 1.00)

      8 Sym. Ops. (no inversion) found



   Cartesian axes

     site n.     atom                  positions (alat units)
         1           H   tau(   1) = (   0.5000000   0.5000000   0.5000000  )
         2           H   tau(   2) = (   0.9000000   0.5000000   0.5000000  )

     number of k points=     1
                       cart. coord. in units 2pi/alat
        k(    1) = (   0.0000000   0.0000000   0.0000000), wk =   2.0000000

     Dense  grid:     7122 G-vectors     FFT dimensions: (  32,  32,  32)

     Estimated max dynamical RAM per process >       5.60Mb

     Initial potential from superposition of free atoms
     Check: negative starting charge=   -0.000359

     starting charge    1.99998, renormalised to    2.00000

     negative rho (up, down):  3.594E-04 0.000E+00
     Starting wfc are    2 randomized atomic wfcs

     total cpu time spent up to now is        0.2 secs

     Self-consistent Calculation

     iteration #  1     ecut=    50.00 Ry     beta=0.50
     Davidson diagonalization with overlap
     ethr =  1.00E-02,  avg # of iterations =  1.0

     Threshold (ethr) on eigenvalues was too large:
     Diagonalizing with lowered threshold

     Davidson diagonalization with overlap
     ethr =  4.06E-04,  avg # of iterations =  1.0

     negative rho (up, down):  7.067E-05 0.000E+00

     total cpu time spent up to now is        0.3 secs

     total energy              =      -2.04434139 Ry
     Harris-Foulkes estimate   =      -2.04488173 Ry
     estimated scf accuracy    <       0.00737182 Ry

     iteration #  2     ecut=    50.00 Ry     beta=0.50
     Davidson diagonalization with overlap
     ethr =  3.69E-04,  avg # of iterations =  1.0

     negative rho (up, down):  1.449E-05 0.000E+00

     total cpu time spent up to now is        0.3 secs

     total energy              =      -2.04460981 Ry
     Harris-Foulkes estimate   =      -2.04464260 Ry
     estimated scf accuracy    <       0.00150526 Ry

     iteration #  3     ecut=    50.00 Ry     beta=0.50
     Davidson diagonalization with overlap
     ethr =  7.53E-05,  avg # of iterations =  1.0

     negative rho (up, down):  1.661E-05 0.000E+00

     total cpu time spent up to now is        0.4 secs

     total energy              =      -2.04472928 Ry
     Harris-Foulkes estimate   =      -2.04472384 Ry
     estimated scf accuracy    <       0.00001240 Ry

     iteration #  4     ecut=    50.00 Ry     beta=0.50
     Davidson diagonalization with overlap
     ethr =  6.20E-07,  avg # of iterations =  3.0

     negative rho (up, down):  2.168E-05 0.000E+00

     total cpu time spent up to now is        0.4 secs

     total energy              =      -2.04474052 Ry
     Harris-Foulkes estimate   =      -2.04474221 Ry
     estimated scf accuracy    <       0.00000583 Ry

     iteration #  5     ecut=    50.00 Ry     beta=0.50
     Davidson diagonalization with overlap
     ethr =  2.91E-07,  avg # of iterations =  2.0

     negative rho (up, down):  2.172E-05 0.000E+00

     total cpu time spent up to now is        0.5 secs

     total energy              =      -2.04474122 Ry
     Harris-Foulkes estimate   =      -2.04474135 Ry
     estimated scf accuracy    <       0.00000116 Ry

     iteration #  6     ecut=    50.00 Ry     beta=0.50
     Davidson diagonalization with overlap
     ethr =  5.78E-08,  avg # of iterations =  1.0

     negative rho (up, down):  2.150E-05 0.000E+00

     total cpu time spent up to now is        0.5 secs

     total energy              =      -2.04474099 Ry
     Harris-Foulkes estimate   =      -2.04474126 Ry
     estimated scf accuracy    <       0.00000062 Ry

     iteration #  7     ecut=    50.00 Ry     beta=0.50
     Davidson diagonalization with overlap
     ethr =  3.10E-08,  avg # of iterations =  3.0

     negative rho (up, down):  2.144E-05 0.000E+00

     total cpu time spent up to now is        0.5 secs

     total energy              =      -2.04474118 Ry
     Harris-Foulkes estimate   =      -2.04474129 Ry
     estimated scf accuracy    <       0.00000096 Ry

     iteration #  8     ecut=    50.00 Ry     beta=0.50
     Davidson diagonalization with overlap
     ethr =  3.10E-08,  avg # of iterations =  1.0

     negative rho (up, down):  2.143E-05 0.000E+00

     total cpu time spent up to now is        0.6 secs

     total energy              =      -2.04474118 Ry
     Harris-Foulkes estimate   =      -2.04474119 Ry
     estimated scf accuracy    <       0.00000067 Ry

     iteration #  9     ecut=    50.00 Ry     beta=0.50
     Davidson diagonalization with overlap
     ethr =  3.10E-08,  avg # of iterations =  1.0

     negative rho (up, down):  2.136E-05 0.000E+00

     total cpu time spent up to now is        0.6 secs

     total energy              =      -2.04474093 Ry
     Harris-Foulkes estimate   =      -2.04474119 Ry
     estimated scf accuracy    <       0.00000057 Ry

     iteration # 10     ecut=    50.00 Ry     beta=0.50
     Davidson diagonalization with overlap
     ethr =  2.86E-08,  avg # of iterations =  2.0

     negative rho (up, down):  2.141E-05 0.000E+00

     total cpu time spent up to now is        0.6 secs

     total energy              =      -2.04474111 Ry
     Harris-Foulkes estimate   =      -2.04474125 Ry
     estimated scf accuracy    <       0.00000067 Ry

     iteration # 11     ecut=    50.00 Ry     beta=0.50
     Davidson diagonalization with overlap
     ethr =  2.86E-08,  avg # of iterations =  1.0

     negative rho (up, down):  2.143E-05 0.000E+00

     total cpu time spent up to now is        0.7 secs

     total energy              =      -2.04474109 Ry
     Harris-Foulkes estimate   =      -2.04474113 Ry
     estimated scf accuracy    <       0.00000028 Ry

     iteration # 12     ecut=    50.00 Ry     beta=0.50
     Davidson diagonalization with overlap
     ethr =  1.38E-08,  avg # of iterations =  1.0

     negative rho (up, down):  2.150E-05 0.000E+00

     total cpu time spent up to now is        0.7 secs

     total energy              =      -2.04474104 Ry
     Harris-Foulkes estimate   =      -2.04474111 Ry
     estimated scf accuracy    <       0.00000011 Ry

     iteration # 13     ecut=    50.00 Ry     beta=0.50
     Davidson diagonalization with overlap
     ethr =  5.53E-09,  avg # of iterations =  3.0

     negative rho (up, down):  2.147E-05 0.000E+00

     total cpu time spent up to now is        0.7 secs

     total energy              =      -2.04474100 Ry
     Harris-Foulkes estimate   =      -2.04474136 Ry
     estimated scf accuracy    <       0.00000148 Ry

     iteration # 14     ecut=    50.00 Ry     beta=0.50
     Davidson diagonalization with overlap
     ethr =  5.53E-09,  avg # of iterations =  3.0

     negative rho (up, down):  2.148E-05 0.000E+00

     total cpu time spent up to now is        0.8 secs

     End of self-consistent calculation

          k = 0.0000 0.0000 0.0000 (  2521 PWs)   bands (ev):

    -7.8073

     highest occupied level (ev):    -7.8073

!    total energy              =      -2.04474114 Ry
     Harris-Foulkes estimate   =      -2.04474115 Ry
     estimated scf accuracy    <       0.00000001 Ry

     total all-electron energy =        -2.044733 Ry

     The total energy is the sum of the following terms:

     one-electron contribution =      -1.07585922 Ry
     hartree contribution      =       0.58543742 Ry
     xc contribution           =      -0.97084813 Ry
     ewald contribution        =      -0.58321216 Ry
     one-center paw contrib.   =      -0.00025904 Ry

     convergence has been achieved in  14 iterations

     Forces acting on atoms (Ry/au):

     atom    1 type  1   force =     0.06880372    0.00000000    0.00000000
     atom    2 type  1   force =    -0.06880372    0.00000000    0.00000000

     Total force =     0.097303     Total SCF correction =     0.000010

     Writing output data file pwscf.save

     init_run     :      0.10s CPU      0.12s WALL (       1 calls)
     electrons    :      0.47s CPU      0.52s WALL (       1 calls)
     forces       :      0.01s CPU      0.01s WALL (       1 calls)

     Called by init_run:
     wfcinit      :      0.00s CPU      0.00s WALL (       1 calls)
     potinit      :      0.03s CPU      0.04s WALL (       1 calls)

     Called by electrons:
     c_bands      :      0.06s CPU      0.06s WALL (      15 calls)
     sum_band     :      0.05s CPU      0.05s WALL (      15 calls)
     v_of_rho     :      0.31s CPU      0.33s WALL (      15 calls)
     newd         :      0.02s CPU      0.02s WALL (      15 calls)
     PAW_pot      :      0.02s CPU      0.02s WALL (      15 calls)
     mix_rho      :      0.03s CPU      0.05s WALL (      15 calls)

     Called by c_bands:
     init_us_2    :      0.01s CPU      0.01s WALL (      31 calls)
     regterg      :      0.05s CPU      0.05s WALL (      15 calls)

     Called by sum_band:
     sum_band:bec :      0.00s CPU      0.00s WALL (      15 calls)
     addusdens    :      0.02s CPU      0.02s WALL (      15 calls)

     Called by *egterg:
     h_psi        :      0.04s CPU      0.05s WALL (      41 calls)
     s_psi        :      0.00s CPU      0.00s WALL (      41 calls)
     g_psi        :      0.00s CPU      0.00s WALL (      25 calls)
     rdiaghg      :      0.00s CPU      0.00s WALL (      39 calls)

     Called by h_psi:
     h_psi:pot    :      0.04s CPU      0.05s WALL (      41 calls)
     h_psi:calbec :      0.00s CPU      0.00s WALL (      41 calls)
     vloc_psi     :      0.04s CPU      0.04s WALL (      41 calls)
     add_vuspsi   :      0.00s CPU      0.00s WALL (      41 calls)

     General routines
     calbec       :      0.00s CPU      0.00s WALL (      60 calls)
     fft          :      0.12s CPU      0.13s WALL (     199 calls)
     fftw         :      0.04s CPU      0.04s WALL (      97 calls)
     davcio       :      0.00s CPU      0.00s WALL (       1 calls)


     PWSCF        :     0.71s CPU         0.82s WALL


   This run was terminated on:   9:38:40  29Aug2018            

=------------------------------------------------------------------------------=
   JOB DONE.
=------------------------------------------------------------------------------=
