
     Program PWSCF v.6.0 (svn rev. 13079) starts on 21Jun2018 at 12:32:51 

     This program is part of the open-source Quantum ESPRESSO suite
     for quantum simulation of materials; please cite
         "P. Giannozzi et al., J. Phys.:Condens. Matter 21 395502 (2009);
          URL http://www.quantum-espresso.org", 
     in publications or presentations arising from this work. More details at
     http://www.quantum-espresso.org/quote

     Serial version
     Reading input from /Users/simonbatzner1/Desktop/Research/Research_Code/ML-electron-density/AIMD/step_Al_37/pwscf.in
Warning: card &IONS ignored
Warning: card / ignored
Warning: card &CELL ignored
Warning: card / ignored

     Current dimensions of program PWSCF are:
     Max number of different atomic species (ntypx) = 10
     Max number of k-points (npk) =  40000
     Max angular momentum in pseudopotentials (lmaxx) =  3
     Message from routine setup:
     no reason to have ecutrho>4*ecutwfc

     G-vector sticks info
     --------------------
     sticks:   dense  smooth     PW     G-vecs:    dense   smooth      PW
     Sum         185      97     21                 1935      739      81



     bravais-lattice index     =            0
     lattice parameter (alat)  =       7.7479  a.u.
     unit-cell volume          =     465.1020 (a.u.)^3
     number of atoms/cell      =            4
     number of atomic types    =            1
     number of electrons       =        12.00
     number of Kohn-Sham states=           10
     kinetic-energy cutoff     =       5.0000  Ry
     charge density cutoff     =      40.0000  Ry
     convergence threshold     =      1.0E-07
     mixing beta               =       0.5000
     number of iterations used =            8  plain     mixing
     Exchange-correlation      =  SLA  PZ   NOGX NOGC ( 1  1  0  0 0 0)

     celldm(1)=   7.747877  celldm(2)=   0.000000  celldm(3)=   0.000000
     celldm(4)=   0.000000  celldm(5)=   0.000000  celldm(6)=   0.000000

     crystal axes: (cart. coord. in units of alat)
               a(1) = (   1.000000   0.000000   0.000000 )  
               a(2) = (   0.000000   1.000000   0.000000 )  
               a(3) = (   0.000000   0.000000   1.000000 )  

     reciprocal axes: (cart. coord. in units 2 pi/alat)
               b(1) = (  1.000000  0.000000  0.000000 )  
               b(2) = (  0.000000  1.000000  0.000000 )  
               b(3) = (  0.000000  0.000000  1.000000 )  


     PseudoPot. # 1 for Al read from file:
     /Users/simonbatzner1/QE/qe-6.0/pseudo/Al.pz-vbc.UPF
     MD5 check sum: 614279c88ff8d45c90147292d03ed420
     Pseudo is Norm-conserving, Zval =  3.0
     Generated by new atomic code, or converted to UPF format
     Using radial grid of  171 points,  2 beta functions with: 
                l(1) =   0
                l(2) =   1

     atomic species   valence    mass     pseudopotential
        Al             3.00    26.98154     Al( 1.00)

     No symmetry found



   Cartesian axes

     site n.     atom                  positions (alat units)
         1           Al  tau(   1) = (  -0.0237390  -0.0152610  -0.0410220  )
         2           Al  tau(   2) = (  -0.0023268   0.4733463   0.5326976  )
         3           Al  tau(   3) = (   0.5535902  -0.0217537   0.5014171  )
         4           Al  tau(   4) = (   0.5125585   0.5381927  -0.0111488  )

     number of k points=     1  Methfessel-Paxton smearing, width (Ry)=  0.0200
                       cart. coord. in units 2pi/alat
        k(    1) = (   0.0000000   0.0000000   0.0000000), wk =   2.0000000

     Dense  grid:     1935 G-vectors     FFT dimensions: (  15,  15,  15)

     Smooth grid:      739 G-vectors     FFT dimensions: (  12,  12,  12)

     Estimated max dynamical RAM per process >       1.14Mb

     Initial potential from superposition of free atoms

     starting charge   11.99177, renormalised to   12.00000
     Starting wfc are   16 randomized atomic wfcs

     total cpu time spent up to now is        0.0 secs

     Self-consistent Calculation

     iteration #  1     ecut=     5.00 Ry     beta=0.50
     Davidson diagonalization with overlap
     ethr =  1.00E-02,  avg # of iterations =  3.0

     total cpu time spent up to now is        0.0 secs

     total energy              =     -15.88488142 Ry
     Harris-Foulkes estimate   =     -15.92873644 Ry
     estimated scf accuracy    <       0.12744214 Ry

     iteration #  2     ecut=     5.00 Ry     beta=0.50
     Davidson diagonalization with overlap
     ethr =  1.06E-03,  avg # of iterations =  2.0

     total cpu time spent up to now is        0.0 secs

     total energy              =     -15.90025336 Ry
     Harris-Foulkes estimate   =     -15.91352925 Ry
     estimated scf accuracy    <       0.04878394 Ry

     iteration #  3     ecut=     5.00 Ry     beta=0.50
     Davidson diagonalization with overlap
     ethr =  4.07E-04,  avg # of iterations =  1.0

     total cpu time spent up to now is        0.0 secs

     total energy              =     -15.90644214 Ry
     Harris-Foulkes estimate   =     -15.90932665 Ry
     estimated scf accuracy    <       0.01555442 Ry

     iteration #  4     ecut=     5.00 Ry     beta=0.50
     Davidson diagonalization with overlap
     ethr =  1.30E-04,  avg # of iterations =  1.0

     total cpu time spent up to now is        0.0 secs

     total energy              =     -15.90805735 Ry
     Harris-Foulkes estimate   =     -15.90818071 Ry
     estimated scf accuracy    <       0.00164707 Ry

     iteration #  5     ecut=     5.00 Ry     beta=0.50
     Davidson diagonalization with overlap
     ethr =  1.37E-05,  avg # of iterations = 12.0

     total cpu time spent up to now is        0.0 secs

     total energy              =     -15.90816118 Ry
     Harris-Foulkes estimate   =     -15.90818205 Ry
     estimated scf accuracy    <       0.00007612 Ry

     iteration #  6     ecut=     5.00 Ry     beta=0.50
     Davidson diagonalization with overlap
     ethr =  6.34E-07,  avg # of iterations =  7.0

     total cpu time spent up to now is        0.0 secs

     total energy              =     -15.90816862 Ry
     Harris-Foulkes estimate   =     -15.90817379 Ry
     estimated scf accuracy    <       0.00002228 Ry

     iteration #  7     ecut=     5.00 Ry     beta=0.50
     Davidson diagonalization with overlap
     ethr =  1.86E-07,  avg # of iterations =  1.0

     total cpu time spent up to now is        0.0 secs

     total energy              =     -15.90817172 Ry
     Harris-Foulkes estimate   =     -15.90817195 Ry
     estimated scf accuracy    <       0.00000176 Ry

     iteration #  8     ecut=     5.00 Ry     beta=0.50
     Davidson diagonalization with overlap
     ethr =  1.47E-08,  avg # of iterations =  2.0

     total cpu time spent up to now is        0.1 secs

     total energy              =     -15.90817192 Ry
     Harris-Foulkes estimate   =     -15.90817195 Ry
     estimated scf accuracy    <       0.00000019 Ry

     iteration #  9     ecut=     5.00 Ry     beta=0.50
     Davidson diagonalization with overlap
     ethr =  1.55E-09,  avg # of iterations =  2.0

     total cpu time spent up to now is        0.1 secs

     End of self-consistent calculation

          k = 0.0000 0.0000 0.0000 (    81 PWs)   bands (ev):

    -2.9144   4.4664   4.5205   4.6117   6.3166   6.3312   6.3501  12.2249
    12.3993  12.4689

     the Fermi energy is     6.3876 ev

!    total energy              =     -15.90817192 Ry
     Harris-Foulkes estimate   =     -15.90817196 Ry
     estimated scf accuracy    <       0.00000009 Ry

     The total energy is the sum of the following terms:

     one-electron contribution =      11.38205548 Ry
     hartree contribution      =       0.16773910 Ry
     xc contribution           =      -6.35971303 Ry
     ewald contribution        =     -21.08343932 Ry
     smearing contrib. (-TS)   =      -0.01481415 Ry

     convergence has been achieved in   9 iterations

     Forces acting on atoms (Ry/au):

     atom    1 type  1   force =     0.01221744    0.00085774    0.01319609
     atom    2 type  1   force =     0.00346491    0.00366732   -0.00634138
     atom    3 type  1   force =    -0.01112556    0.00160534   -0.01006145
     atom    4 type  1   force =    -0.00455679   -0.00613040    0.00320674

     Total force =     0.026192     Total SCF correction =     0.000045

     Writing output data file Al.save

     init_run     :      0.01s CPU      0.01s WALL (       1 calls)
     electrons    :      0.03s CPU      0.04s WALL (       1 calls)
     forces       :      0.00s CPU      0.00s WALL (       1 calls)

     Called by init_run:
     wfcinit      :      0.00s CPU      0.00s WALL (       1 calls)
     potinit      :      0.00s CPU      0.00s WALL (       1 calls)

     Called by electrons:
     c_bands      :      0.02s CPU      0.02s WALL (       9 calls)
     sum_band     :      0.00s CPU      0.00s WALL (       9 calls)
     v_of_rho     :      0.00s CPU      0.00s WALL (      10 calls)
     mix_rho      :      0.00s CPU      0.00s WALL (       9 calls)

     Called by c_bands:
     init_us_2    :      0.00s CPU      0.00s WALL (      19 calls)
     cegterg      :      0.02s CPU      0.02s WALL (       9 calls)

     Called by sum_band:

     Called by *egterg:
     h_psi        :      0.01s CPU      0.01s WALL (      41 calls)
     g_psi        :      0.00s CPU      0.00s WALL (      31 calls)
     cdiaghg      :      0.01s CPU      0.01s WALL (      40 calls)

     Called by h_psi:
     h_psi:pot    :      0.01s CPU      0.01s WALL (      41 calls)
     h_psi:calbec :      0.00s CPU      0.00s WALL (      41 calls)
     vloc_psi     :      0.01s CPU      0.01s WALL (      41 calls)
     add_vuspsi   :      0.00s CPU      0.00s WALL (      41 calls)

     General routines
     calbec       :      0.00s CPU      0.00s WALL (      45 calls)
     fft          :      0.00s CPU      0.00s WALL (      68 calls)
     ffts         :      0.00s CPU      0.00s WALL (      19 calls)
     fftw         :      0.00s CPU      0.01s WALL (     568 calls)
     interpolate  :      0.00s CPU      0.00s WALL (      19 calls)
     davcio       :      0.00s CPU      0.00s WALL (       1 calls)


     PWSCF        :     0.08s CPU         0.09s WALL


   This run was terminated on:  12:32:51  21Jun2018            

=------------------------------------------------------------------------------=
   JOB DONE.
=------------------------------------------------------------------------------=
