
     Program PWSCF v.6.0 (svn rev. 13079) starts on 21Jun2018 at 12:32:55 

     This program is part of the open-source Quantum ESPRESSO suite
     for quantum simulation of materials; please cite
         "P. Giannozzi et al., J. Phys.:Condens. Matter 21 395502 (2009);
          URL http://www.quantum-espresso.org", 
     in publications or presentations arising from this work. More details at
     http://www.quantum-espresso.org/quote

     Serial version
     Reading input from /Users/simonbatzner1/Desktop/Research/Research_Code/ML-electron-density/AIMD/step_Al_40/pwscf.in
Warning: card &IONS ignored
Warning: card / ignored
Warning: card &CELL ignored
Warning: card / ignored

     Current dimensions of program PWSCF are:
     Max number of different atomic species (ntypx) = 10
     Max number of k-points (npk) =  40000
     Max angular momentum in pseudopotentials (lmaxx) =  3
     Message from routine setup:
     no reason to have ecutrho>4*ecutwfc

     G-vector sticks info
     --------------------
     sticks:   dense  smooth     PW     G-vecs:    dense   smooth      PW
     Sum         185      97     21                 1935      739      81



     bravais-lattice index     =            0
     lattice parameter (alat)  =       7.7479  a.u.
     unit-cell volume          =     465.1020 (a.u.)^3
     number of atoms/cell      =            4
     number of atomic types    =            1
     number of electrons       =        12.00
     number of Kohn-Sham states=           10
     kinetic-energy cutoff     =       5.0000  Ry
     charge density cutoff     =      40.0000  Ry
     convergence threshold     =      1.0E-07
     mixing beta               =       0.5000
     number of iterations used =            8  plain     mixing
     Exchange-correlation      =  SLA  PZ   NOGX NOGC ( 1  1  0  0 0 0)

     celldm(1)=   7.747877  celldm(2)=   0.000000  celldm(3)=   0.000000
     celldm(4)=   0.000000  celldm(5)=   0.000000  celldm(6)=   0.000000

     crystal axes: (cart. coord. in units of alat)
               a(1) = (   1.000000   0.000000   0.000000 )  
               a(2) = (   0.000000   1.000000   0.000000 )  
               a(3) = (   0.000000   0.000000   1.000000 )  

     reciprocal axes: (cart. coord. in units 2 pi/alat)
               b(1) = (  1.000000  0.000000  0.000000 )  
               b(2) = (  0.000000  1.000000  0.000000 )  
               b(3) = (  0.000000  0.000000  1.000000 )  


     PseudoPot. # 1 for Al read from file:
     /Users/simonbatzner1/QE/qe-6.0/pseudo/Al.pz-vbc.UPF
     MD5 check sum: 614279c88ff8d45c90147292d03ed420
     Pseudo is Norm-conserving, Zval =  3.0
     Generated by new atomic code, or converted to UPF format
     Using radial grid of  171 points,  2 beta functions with: 
                l(1) =   0
                l(2) =   1

     atomic species   valence    mass     pseudopotential
        Al             3.00    26.98154     Al( 1.00)

     No symmetry found



   Cartesian axes

     site n.     atom                  positions (alat units)
         1           Al  tau(   1) = (  -0.0253415  -0.0200780  -0.0456756  )
         2           Al  tau(   2) = (  -0.0029341   0.4737463   0.5344293  )
         3           Al  tau(   3) = (   0.5580024  -0.0264610   0.5019732  )
         4           Al  tau(   4) = (   0.5169512   0.5431220  -0.0117683  )

     number of k points=     1  Methfessel-Paxton smearing, width (Ry)=  0.0200
                       cart. coord. in units 2pi/alat
        k(    1) = (   0.0000000   0.0000000   0.0000000), wk =   2.0000000

     Dense  grid:     1935 G-vectors     FFT dimensions: (  15,  15,  15)

     Smooth grid:      739 G-vectors     FFT dimensions: (  12,  12,  12)

     Estimated max dynamical RAM per process >       1.14Mb

     Initial potential from superposition of free atoms

     starting charge   11.99177, renormalised to   12.00000
     Starting wfc are   16 randomized atomic wfcs

     total cpu time spent up to now is        0.0 secs

     Self-consistent Calculation

     iteration #  1     ecut=     5.00 Ry     beta=0.50
     Davidson diagonalization with overlap
     ethr =  1.00E-02,  avg # of iterations =  3.0

     total cpu time spent up to now is        0.0 secs

     total energy              =     -15.87476060 Ry
     Harris-Foulkes estimate   =     -15.93307813 Ry
     estimated scf accuracy    <       0.15382020 Ry

     iteration #  2     ecut=     5.00 Ry     beta=0.50
     Davidson diagonalization with overlap
     ethr =  1.28E-03,  avg # of iterations =  2.0

     total cpu time spent up to now is        0.0 secs

     total energy              =     -15.89575323 Ry
     Harris-Foulkes estimate   =     -15.91449152 Ry
     estimated scf accuracy    <       0.06669051 Ry

     iteration #  3     ecut=     5.00 Ry     beta=0.50
     Davidson diagonalization with overlap
     ethr =  5.56E-04,  avg # of iterations =  1.0

     total cpu time spent up to now is        0.0 secs

     total energy              =     -15.90445469 Ry
     Harris-Foulkes estimate   =     -15.90742984 Ry
     estimated scf accuracy    <       0.01604154 Ry

     iteration #  4     ecut=     5.00 Ry     beta=0.50
     Davidson diagonalization with overlap
     ethr =  1.34E-04,  avg # of iterations =  1.0

     total cpu time spent up to now is        0.0 secs

     total energy              =     -15.90614015 Ry
     Harris-Foulkes estimate   =     -15.90626211 Ry
     estimated scf accuracy    <       0.00181539 Ry

     iteration #  5     ecut=     5.00 Ry     beta=0.50
     Davidson diagonalization with overlap
     ethr =  1.51E-05,  avg # of iterations =  9.0

     total cpu time spent up to now is        0.0 secs

     total energy              =     -15.90625113 Ry
     Harris-Foulkes estimate   =     -15.90628669 Ry
     estimated scf accuracy    <       0.00013628 Ry

     iteration #  6     ecut=     5.00 Ry     beta=0.50
     Davidson diagonalization with overlap
     ethr =  1.14E-06,  avg # of iterations =  1.0

     total cpu time spent up to now is        0.0 secs

     total energy              =     -15.90626217 Ry
     Harris-Foulkes estimate   =     -15.90626991 Ry
     estimated scf accuracy    <       0.00002928 Ry

     iteration #  7     ecut=     5.00 Ry     beta=0.50
     Davidson diagonalization with overlap
     ethr =  2.44E-07,  avg # of iterations =  2.0

     total cpu time spent up to now is        0.0 secs

     total energy              =     -15.90626664 Ry
     Harris-Foulkes estimate   =     -15.90626709 Ry
     estimated scf accuracy    <       0.00000234 Ry

     iteration #  8     ecut=     5.00 Ry     beta=0.50
     Davidson diagonalization with overlap
     ethr =  1.95E-08,  avg # of iterations =  2.0

     total cpu time spent up to now is        0.0 secs

     total energy              =     -15.90626695 Ry
     Harris-Foulkes estimate   =     -15.90626699 Ry
     estimated scf accuracy    <       0.00000023 Ry

     iteration #  9     ecut=     5.00 Ry     beta=0.50
     Davidson diagonalization with overlap
     ethr =  1.95E-09,  avg # of iterations =  2.0

     total cpu time spent up to now is        0.0 secs

     total energy              =     -15.90626699 Ry
     Harris-Foulkes estimate   =     -15.90626701 Ry
     estimated scf accuracy    <       0.00000015 Ry

     iteration # 10     ecut=     5.00 Ry     beta=0.50
     Davidson diagonalization with overlap
     ethr =  1.27E-09,  avg # of iterations =  1.0

     total cpu time spent up to now is        0.1 secs

     End of self-consistent calculation

          k = 0.0000 0.0000 0.0000 (    81 PWs)   bands (ev):

    -2.9428   4.4509   4.4914   4.6138   6.2844   6.3026   6.3255  12.1893
    12.3703  12.4344

     the Fermi energy is     6.3593 ev

!    total energy              =     -15.90626700 Ry
     Harris-Foulkes estimate   =     -15.90626700 Ry
     estimated scf accuracy    <          8.6E-09 Ry

     The total energy is the sum of the following terms:

     one-electron contribution =      11.29923171 Ry
     hartree contribution      =       0.20597131 Ry
     xc contribution           =      -6.36922979 Ry
     ewald contribution        =     -21.02748617 Ry
     smearing contrib. (-TS)   =      -0.01475406 Ry

     convergence has been achieved in  10 iterations

     Forces acting on atoms (Ry/au):

     atom    1 type  1   force =     0.01656618    0.00299447    0.01613667
     atom    2 type  1   force =     0.00454439    0.00233770   -0.00707617
     atom    3 type  1   force =    -0.01379100    0.00249584   -0.01330470
     atom    4 type  1   force =    -0.00731958   -0.00782800    0.00424420

     Total force =     0.033560     Total SCF correction =     0.000042

     Writing output data file Al.save

     init_run     :      0.01s CPU      0.01s WALL (       1 calls)
     electrons    :      0.03s CPU      0.04s WALL (       1 calls)
     forces       :      0.00s CPU      0.00s WALL (       1 calls)

     Called by init_run:
     wfcinit      :      0.00s CPU      0.00s WALL (       1 calls)
     potinit      :      0.00s CPU      0.00s WALL (       1 calls)

     Called by electrons:
     c_bands      :      0.02s CPU      0.02s WALL (      10 calls)
     sum_band     :      0.00s CPU      0.00s WALL (      10 calls)
     v_of_rho     :      0.00s CPU      0.00s WALL (      11 calls)
     mix_rho      :      0.00s CPU      0.00s WALL (      10 calls)

     Called by c_bands:
     init_us_2    :      0.00s CPU      0.00s WALL (      21 calls)
     cegterg      :      0.02s CPU      0.02s WALL (      10 calls)

     Called by sum_band:

     Called by *egterg:
     h_psi        :      0.01s CPU      0.01s WALL (      35 calls)
     g_psi        :      0.00s CPU      0.00s WALL (      24 calls)
     cdiaghg      :      0.01s CPU      0.01s WALL (      34 calls)

     Called by h_psi:
     h_psi:pot    :      0.01s CPU      0.01s WALL (      35 calls)
     h_psi:calbec :      0.00s CPU      0.00s WALL (      35 calls)
     vloc_psi     :      0.01s CPU      0.01s WALL (      35 calls)
     add_vuspsi   :      0.00s CPU      0.00s WALL (      35 calls)

     General routines
     calbec       :      0.00s CPU      0.00s WALL (      39 calls)
     fft          :      0.00s CPU      0.00s WALL (      75 calls)
     ffts         :      0.00s CPU      0.00s WALL (      21 calls)
     fftw         :      0.01s CPU      0.01s WALL (     596 calls)
     interpolate  :      0.00s CPU      0.00s WALL (      21 calls)
     davcio       :      0.00s CPU      0.00s WALL (       1 calls)


     PWSCF        :     0.08s CPU         0.09s WALL


   This run was terminated on:  12:32:55  21Jun2018            

=------------------------------------------------------------------------------=
   JOB DONE.
=------------------------------------------------------------------------------=
