
     Program PWSCF v.6.0 (svn rev. 13079) starts on 21Jun2018 at 12:32:47 

     This program is part of the open-source Quantum ESPRESSO suite
     for quantum simulation of materials; please cite
         "P. Giannozzi et al., J. Phys.:Condens. Matter 21 395502 (2009);
          URL http://www.quantum-espresso.org", 
     in publications or presentations arising from this work. More details at
     http://www.quantum-espresso.org/quote

     Serial version
     Reading input from /Users/simonbatzner1/Desktop/Research/Research_Code/ML-electron-density/AIMD/step_Al_33/pwscf.in
Warning: card &IONS ignored
Warning: card / ignored
Warning: card &CELL ignored
Warning: card / ignored

     Current dimensions of program PWSCF are:
     Max number of different atomic species (ntypx) = 10
     Max number of k-points (npk) =  40000
     Max angular momentum in pseudopotentials (lmaxx) =  3
     Message from routine setup:
     no reason to have ecutrho>4*ecutwfc

     G-vector sticks info
     --------------------
     sticks:   dense  smooth     PW     G-vecs:    dense   smooth      PW
     Sum         185      97     21                 1935      739      81



     bravais-lattice index     =            0
     lattice parameter (alat)  =       7.7479  a.u.
     unit-cell volume          =     465.1020 (a.u.)^3
     number of atoms/cell      =            4
     number of atomic types    =            1
     number of electrons       =        12.00
     number of Kohn-Sham states=           10
     kinetic-energy cutoff     =       5.0000  Ry
     charge density cutoff     =      40.0000  Ry
     convergence threshold     =      1.0E-07
     mixing beta               =       0.5000
     number of iterations used =            8  plain     mixing
     Exchange-correlation      =  SLA  PZ   NOGX NOGC ( 1  1  0  0 0 0)

     celldm(1)=   7.747877  celldm(2)=   0.000000  celldm(3)=   0.000000
     celldm(4)=   0.000000  celldm(5)=   0.000000  celldm(6)=   0.000000

     crystal axes: (cart. coord. in units of alat)
               a(1) = (   1.000000   0.000000   0.000000 )  
               a(2) = (   0.000000   1.000000   0.000000 )  
               a(3) = (   0.000000   0.000000   1.000000 )  

     reciprocal axes: (cart. coord. in units 2 pi/alat)
               b(1) = (  1.000000  0.000000  0.000000 )  
               b(2) = (  0.000000  1.000000  0.000000 )  
               b(3) = (  0.000000  0.000000  1.000000 )  


     PseudoPot. # 1 for Al read from file:
     /Users/simonbatzner1/QE/qe-6.0/pseudo/Al.pz-vbc.UPF
     MD5 check sum: 614279c88ff8d45c90147292d03ed420
     Pseudo is Norm-conserving, Zval =  3.0
     Generated by new atomic code, or converted to UPF format
     Using radial grid of  171 points,  2 beta functions with: 
                l(1) =   0
                l(2) =   1

     atomic species   valence    mass     pseudopotential
        Al             3.00    26.98154     Al( 1.00)

     No symmetry found



   Cartesian axes

     site n.     atom                  positions (alat units)
         1           Al  tau(   1) = (  -0.0217854  -0.0093976  -0.0353585  )
         2           Al  tau(   2) = (  -0.0015854   0.4728561   0.5305854  )
         3           Al  tau(   3) = (   0.5482195  -0.0160244   0.5007366  )
         4           Al  tau(   4) = (   0.5072146   0.5321927  -0.0103951  )

     number of k points=     1  Methfessel-Paxton smearing, width (Ry)=  0.0200
                       cart. coord. in units 2pi/alat
        k(    1) = (   0.0000000   0.0000000   0.0000000), wk =   2.0000000

     Dense  grid:     1935 G-vectors     FFT dimensions: (  15,  15,  15)

     Smooth grid:      739 G-vectors     FFT dimensions: (  12,  12,  12)

     Estimated max dynamical RAM per process >       1.14Mb

     Initial potential from superposition of free atoms

     starting charge   11.99177, renormalised to   12.00000
     Starting wfc are   16 randomized atomic wfcs

     total cpu time spent up to now is        0.0 secs

     Self-consistent Calculation

     iteration #  1     ecut=     5.00 Ry     beta=0.50
     Davidson diagonalization with overlap
     ethr =  1.00E-02,  avg # of iterations =  3.0

     Threshold (ethr) on eigenvalues was too large:
     Diagonalizing with lowered threshold

     Davidson diagonalization with overlap
     ethr =  8.72E-04,  avg # of iterations =  1.0

     total cpu time spent up to now is        0.0 secs

     total energy              =     -15.89316563 Ry
     Harris-Foulkes estimate   =     -15.92700854 Ry
     estimated scf accuracy    <       0.10822200 Ry

     iteration #  2     ecut=     5.00 Ry     beta=0.50
     Davidson diagonalization with overlap
     ethr =  9.02E-04,  avg # of iterations =  2.0

     total cpu time spent up to now is        0.0 secs

     total energy              =     -15.90362028 Ry
     Harris-Foulkes estimate   =     -15.91407687 Ry
     estimated scf accuracy    <       0.03938876 Ry

     iteration #  3     ecut=     5.00 Ry     beta=0.50
     Davidson diagonalization with overlap
     ethr =  3.28E-04,  avg # of iterations =  1.0

     total cpu time spent up to now is        0.0 secs

     total energy              =     -15.90818847 Ry
     Harris-Foulkes estimate   =     -15.91094013 Ry
     estimated scf accuracy    <       0.01454539 Ry

     iteration #  4     ecut=     5.00 Ry     beta=0.50
     Davidson diagonalization with overlap
     ethr =  1.21E-04,  avg # of iterations =  1.0

     total cpu time spent up to now is        0.0 secs

     total energy              =     -15.90974142 Ry
     Harris-Foulkes estimate   =     -15.90990713 Ry
     estimated scf accuracy    <       0.00173641 Ry

     iteration #  5     ecut=     5.00 Ry     beta=0.50
     Davidson diagonalization with overlap
     ethr =  1.45E-05,  avg # of iterations =  9.0

     total cpu time spent up to now is        0.0 secs

     total energy              =     -15.90983122 Ry
     Harris-Foulkes estimate   =     -15.90985214 Ry
     estimated scf accuracy    <       0.00006246 Ry

     iteration #  6     ecut=     5.00 Ry     beta=0.50
     Davidson diagonalization with overlap
     ethr =  5.20E-07,  avg # of iterations =  3.0

     total cpu time spent up to now is        0.0 secs

     total energy              =     -15.90983714 Ry
     Harris-Foulkes estimate   =     -15.90983947 Ry
     estimated scf accuracy    <       0.00000833 Ry

     iteration #  7     ecut=     5.00 Ry     beta=0.50
     Davidson diagonalization with overlap
     ethr =  6.94E-08,  avg # of iterations =  2.0

     total cpu time spent up to now is        0.0 secs

     total energy              =     -15.90983891 Ry
     Harris-Foulkes estimate   =     -15.90983994 Ry
     estimated scf accuracy    <       0.00000501 Ry

     iteration #  8     ecut=     5.00 Ry     beta=0.50
     Davidson diagonalization with overlap
     ethr =  4.17E-08,  avg # of iterations =  1.0

     total cpu time spent up to now is        0.0 secs

     total energy              =     -15.90983903 Ry
     Harris-Foulkes estimate   =     -15.90983933 Ry
     estimated scf accuracy    <       0.00000072 Ry

     iteration #  9     ecut=     5.00 Ry     beta=0.50
     Davidson diagonalization with overlap
     ethr =  6.04E-09,  avg # of iterations =  2.0

     total cpu time spent up to now is        0.0 secs

     End of self-consistent calculation

          k = 0.0000 0.0000 0.0000 (    81 PWs)   bands (ev):

    -2.8849   4.4844   4.5507   4.6081   6.3487   6.3616   6.3753  12.2701
    12.4284  12.5029

     the Fermi energy is     6.4168 ev

!    total energy              =     -15.90983920 Ry
     Harris-Foulkes estimate   =     -15.90983920 Ry
     estimated scf accuracy    <       0.00000002 Ry

     The total energy is the sum of the following terms:

     one-electron contribution =      11.46610688 Ry
     hartree contribution      =       0.12917020 Ry
     xc contribution           =      -6.35003826 Ry
     ewald contribution        =     -21.14021928 Ry
     smearing contrib. (-TS)   =      -0.01485873 Ry

     convergence has been achieved in   9 iterations

     Forces acting on atoms (Ry/au):

     atom    1 type  1   force =     0.00827310   -0.00085052    0.01034563
     atom    2 type  1   force =     0.00243301    0.00466782   -0.00575530
     atom    3 type  1   force =    -0.00854509    0.00077737   -0.00689546
     atom    4 type  1   force =    -0.00216102   -0.00459467    0.00230512

     Total force =     0.019731     Total SCF correction =     0.000098

     Writing output data file Al.save

     init_run     :      0.01s CPU      0.01s WALL (       1 calls)
     electrons    :      0.03s CPU      0.03s WALL (       1 calls)
     forces       :      0.00s CPU      0.00s WALL (       1 calls)

     Called by init_run:
     wfcinit      :      0.00s CPU      0.00s WALL (       1 calls)
     potinit      :      0.00s CPU      0.00s WALL (       1 calls)

     Called by electrons:
     c_bands      :      0.02s CPU      0.02s WALL (      10 calls)
     sum_band     :      0.00s CPU      0.00s WALL (      10 calls)
     v_of_rho     :      0.00s CPU      0.00s WALL (      10 calls)
     mix_rho      :      0.00s CPU      0.00s WALL (      10 calls)

     Called by c_bands:
     init_us_2    :      0.00s CPU      0.00s WALL (      21 calls)
     cegterg      :      0.02s CPU      0.02s WALL (      10 calls)

     Called by sum_band:

     Called by *egterg:
     h_psi        :      0.01s CPU      0.01s WALL (      36 calls)
     g_psi        :      0.00s CPU      0.00s WALL (      25 calls)
     cdiaghg      :      0.01s CPU      0.01s WALL (      34 calls)

     Called by h_psi:
     h_psi:pot    :      0.01s CPU      0.01s WALL (      36 calls)
     h_psi:calbec :      0.00s CPU      0.00s WALL (      36 calls)
     vloc_psi     :      0.01s CPU      0.01s WALL (      36 calls)
     add_vuspsi   :      0.00s CPU      0.00s WALL (      36 calls)

     General routines
     calbec       :      0.00s CPU      0.00s WALL (      40 calls)
     fft          :      0.00s CPU      0.00s WALL (      71 calls)
     ffts         :      0.00s CPU      0.00s WALL (      20 calls)
     fftw         :      0.00s CPU      0.01s WALL (     618 calls)
     interpolate  :      0.00s CPU      0.00s WALL (      20 calls)
     davcio       :      0.00s CPU      0.00s WALL (       1 calls)


     PWSCF        :     0.08s CPU         0.09s WALL


   This run was terminated on:  12:32:47  21Jun2018            

=------------------------------------------------------------------------------=
   JOB DONE.
=------------------------------------------------------------------------------=
