
     Program PWSCF v.6.0 (svn rev. 13079) starts on 21Jun2018 at 12:32:59 

     This program is part of the open-source Quantum ESPRESSO suite
     for quantum simulation of materials; please cite
         "P. Giannozzi et al., J. Phys.:Condens. Matter 21 395502 (2009);
          URL http://www.quantum-espresso.org", 
     in publications or presentations arising from this work. More details at
     http://www.quantum-espresso.org/quote

     Serial version
     Reading input from /Users/simonbatzner1/Desktop/Research/Research_Code/ML-electron-density/AIMD/step_Al_43/pwscf.in
Warning: card &IONS ignored
Warning: card / ignored
Warning: card &CELL ignored
Warning: card / ignored

     Current dimensions of program PWSCF are:
     Max number of different atomic species (ntypx) = 10
     Max number of k-points (npk) =  40000
     Max angular momentum in pseudopotentials (lmaxx) =  3
     Message from routine setup:
     no reason to have ecutrho>4*ecutwfc

     G-vector sticks info
     --------------------
     sticks:   dense  smooth     PW     G-vecs:    dense   smooth      PW
     Sum         185      97     21                 1935      739      81



     bravais-lattice index     =            0
     lattice parameter (alat)  =       7.7479  a.u.
     unit-cell volume          =     465.1020 (a.u.)^3
     number of atoms/cell      =            4
     number of atomic types    =            1
     number of electrons       =        12.00
     number of Kohn-Sham states=           10
     kinetic-energy cutoff     =       5.0000  Ry
     charge density cutoff     =      40.0000  Ry
     convergence threshold     =      1.0E-07
     mixing beta               =       0.5000
     number of iterations used =            8  plain     mixing
     Exchange-correlation      =  SLA  PZ   NOGX NOGC ( 1  1  0  0 0 0)

     celldm(1)=   7.747877  celldm(2)=   0.000000  celldm(3)=   0.000000
     celldm(4)=   0.000000  celldm(5)=   0.000000  celldm(6)=   0.000000

     crystal axes: (cart. coord. in units of alat)
               a(1) = (   1.000000   0.000000   0.000000 )  
               a(2) = (   0.000000   1.000000   0.000000 )  
               a(3) = (   0.000000   0.000000   1.000000 )  

     reciprocal axes: (cart. coord. in units 2 pi/alat)
               b(1) = (  1.000000  0.000000  0.000000 )  
               b(2) = (  0.000000  1.000000  0.000000 )  
               b(3) = (  0.000000  0.000000  1.000000 )  


     PseudoPot. # 1 for Al read from file:
     /Users/simonbatzner1/QE/qe-6.0/pseudo/Al.pz-vbc.UPF
     MD5 check sum: 614279c88ff8d45c90147292d03ed420
     Pseudo is Norm-conserving, Zval =  3.0
     Generated by new atomic code, or converted to UPF format
     Using radial grid of  171 points,  2 beta functions with: 
                l(1) =   0
                l(2) =   1

     atomic species   valence    mass     pseudopotential
        Al             3.00    26.98154     Al( 1.00)

     No symmetry found



   Cartesian axes

     site n.     atom                  positions (alat units)
         1           Al  tau(   1) = (  -0.0270585  -0.0252537  -0.0506756  )
         2           Al  tau(   2) = (  -0.0035854   0.4741732   0.5362854  )
         3           Al  tau(   3) = (   0.5627439  -0.0315195   0.5025707  )
         4           Al  tau(   4) = (   0.5216707   0.5484171  -0.0124317  )

     number of k points=     1  Methfessel-Paxton smearing, width (Ry)=  0.0200
                       cart. coord. in units 2pi/alat
        k(    1) = (   0.0000000   0.0000000   0.0000000), wk =   2.0000000

     Dense  grid:     1935 G-vectors     FFT dimensions: (  15,  15,  15)

     Smooth grid:      739 G-vectors     FFT dimensions: (  12,  12,  12)

     Estimated max dynamical RAM per process >       1.14Mb

     Initial potential from superposition of free atoms

     starting charge   11.99177, renormalised to   12.00000
     Starting wfc are   16 randomized atomic wfcs

     total cpu time spent up to now is        0.0 secs

     Self-consistent Calculation

     iteration #  1     ecut=     5.00 Ry     beta=0.50
     Davidson diagonalization with overlap
     ethr =  1.00E-02,  avg # of iterations =  3.0

     total cpu time spent up to now is        0.0 secs

     total energy              =     -15.85922321 Ry
     Harris-Foulkes estimate   =     -15.93955824 Ry
     estimated scf accuracy    <       0.19349365 Ry

     iteration #  2     ecut=     5.00 Ry     beta=0.50
     Davidson diagonalization with overlap
     ethr =  1.61E-03,  avg # of iterations =  2.0

     total cpu time spent up to now is        0.0 secs

     total energy              =     -15.88914164 Ry
     Harris-Foulkes estimate   =     -15.91646212 Ry
     estimated scf accuracy    <       0.09441381 Ry

     iteration #  3     ecut=     5.00 Ry     beta=0.50
     Davidson diagonalization with overlap
     ethr =  7.87E-04,  avg # of iterations =  1.0

     total cpu time spent up to now is        0.0 secs

     total energy              =     -15.90147838 Ry
     Harris-Foulkes estimate   =     -15.90472585 Ry
     estimated scf accuracy    <       0.01679742 Ry

     iteration #  4     ecut=     5.00 Ry     beta=0.50
     Davidson diagonalization with overlap
     ethr =  1.40E-04,  avg # of iterations =  1.0

     total cpu time spent up to now is        0.0 secs

     total energy              =     -15.90335384 Ry
     Harris-Foulkes estimate   =     -15.90348517 Ry
     estimated scf accuracy    <       0.00209489 Ry

     iteration #  5     ecut=     5.00 Ry     beta=0.50
     Davidson diagonalization with overlap
     ethr =  1.75E-05,  avg # of iterations =  7.0

     total cpu time spent up to now is        0.1 secs

     total energy              =     -15.90347841 Ry
     Harris-Foulkes estimate   =     -15.90354934 Ry
     estimated scf accuracy    <       0.00027914 Ry

     iteration #  6     ecut=     5.00 Ry     beta=0.50
     Davidson diagonalization with overlap
     ethr =  2.33E-06,  avg # of iterations =  1.0

     total cpu time spent up to now is        0.1 secs

     total energy              =     -15.90349395 Ry
     Harris-Foulkes estimate   =     -15.90350954 Ry
     estimated scf accuracy    <       0.00004810 Ry

     iteration #  7     ecut=     5.00 Ry     beta=0.50
     Davidson diagonalization with overlap
     ethr =  4.01E-07,  avg # of iterations =  2.0

     total cpu time spent up to now is        0.1 secs

     total energy              =     -15.90350254 Ry
     Harris-Foulkes estimate   =     -15.90350320 Ry
     estimated scf accuracy    <       0.00000337 Ry

     iteration #  8     ecut=     5.00 Ry     beta=0.50
     Davidson diagonalization with overlap
     ethr =  2.81E-08,  avg # of iterations =  2.0

     total cpu time spent up to now is        0.1 secs

     total energy              =     -15.90350290 Ry
     Harris-Foulkes estimate   =     -15.90350291 Ry
     estimated scf accuracy    <       0.00000022 Ry

     iteration #  9     ecut=     5.00 Ry     beta=0.50
     Davidson diagonalization with overlap
     ethr =  1.85E-09,  avg # of iterations =  2.0

     total cpu time spent up to now is        0.1 secs

     End of self-consistent calculation

          k = 0.0000 0.0000 0.0000 (    81 PWs)   bands (ev):

    -2.9771   4.4305   4.4592   4.6154   6.2443   6.2684   6.2952  12.1525
    12.3346  12.3914

     the Fermi energy is     6.3247 ev

!    total energy              =     -15.90350291 Ry
     Harris-Foulkes estimate   =     -15.90350296 Ry
     estimated scf accuracy    <       0.00000009 Ry

     The total energy is the sum of the following terms:

     one-electron contribution =      11.19641643 Ry
     hartree contribution      =       0.25371629 Ry
     xc contribution           =      -6.38104150 Ry
     ewald contribution        =     -20.95793482 Ry
     smearing contrib. (-TS)   =      -0.01465931 Ry

     convergence has been achieved in   9 iterations

     Forces acting on atoms (Ry/au):

     atom    1 type  1   force =     0.02260507    0.00624074    0.01993103
     atom    2 type  1   force =     0.00602085    0.00026326   -0.00809309
     atom    3 type  1   force =    -0.01736247    0.00379871   -0.01754272
     atom    4 type  1   force =    -0.01126344   -0.01030270    0.00570478

     Total force =     0.044025     Total SCF correction =     0.000170

     Writing output data file Al.save

     init_run     :      0.01s CPU      0.01s WALL (       1 calls)
     electrons    :      0.04s CPU      0.06s WALL (       1 calls)
     forces       :      0.00s CPU      0.00s WALL (       1 calls)

     Called by init_run:
     wfcinit      :      0.00s CPU      0.00s WALL (       1 calls)
     potinit      :      0.00s CPU      0.00s WALL (       1 calls)

     Called by electrons:
     c_bands      :      0.03s CPU      0.04s WALL (       9 calls)
     sum_band     :      0.00s CPU      0.01s WALL (       9 calls)
     v_of_rho     :      0.01s CPU      0.01s WALL (      10 calls)
     mix_rho      :      0.00s CPU      0.00s WALL (       9 calls)

     Called by c_bands:
     init_us_2    :      0.00s CPU      0.00s WALL (      19 calls)
     cegterg      :      0.03s CPU      0.03s WALL (       9 calls)

     Called by sum_band:

     Called by *egterg:
     h_psi        :      0.01s CPU      0.02s WALL (      31 calls)
     g_psi        :      0.00s CPU      0.00s WALL (      21 calls)
     cdiaghg      :      0.01s CPU      0.01s WALL (      30 calls)

     Called by h_psi:
     h_psi:pot    :      0.01s CPU      0.01s WALL (      31 calls)
     h_psi:calbec :      0.00s CPU      0.00s WALL (      31 calls)
     vloc_psi     :      0.01s CPU      0.01s WALL (      31 calls)
     add_vuspsi   :      0.00s CPU      0.00s WALL (      31 calls)

     General routines
     calbec       :      0.00s CPU      0.00s WALL (      35 calls)
     fft          :      0.00s CPU      0.01s WALL (      68 calls)
     ffts         :      0.00s CPU      0.00s WALL (      19 calls)
     fftw         :      0.01s CPU      0.01s WALL (     552 calls)
     interpolate  :      0.00s CPU      0.00s WALL (      19 calls)
     davcio       :      0.00s CPU      0.00s WALL (       1 calls)


     PWSCF        :     0.11s CPU         0.24s WALL


   This run was terminated on:  12:32:59  21Jun2018            

=------------------------------------------------------------------------------=
   JOB DONE.
=------------------------------------------------------------------------------=
