
     Program PWSCF v.6.0 (svn rev. 13079) starts on 21Jun2018 at 12:32:41 

     This program is part of the open-source Quantum ESPRESSO suite
     for quantum simulation of materials; please cite
         "P. Giannozzi et al., J. Phys.:Condens. Matter 21 395502 (2009);
          URL http://www.quantum-espresso.org", 
     in publications or presentations arising from this work. More details at
     http://www.quantum-espresso.org/quote

     Serial version
     Reading input from /Users/simonbatzner1/Desktop/Research/Research_Code/ML-electron-density/AIMD/step_Al_26/pwscf.in
Warning: card &IONS ignored
Warning: card / ignored
Warning: card &CELL ignored
Warning: card / ignored

     Current dimensions of program PWSCF are:
     Max number of different atomic species (ntypx) = 10
     Max number of k-points (npk) =  40000
     Max angular momentum in pseudopotentials (lmaxx) =  3
     Message from routine setup:
     no reason to have ecutrho>4*ecutwfc

     G-vector sticks info
     --------------------
     sticks:   dense  smooth     PW     G-vecs:    dense   smooth      PW
     Sum         185      97     21                 1935      739      81



     bravais-lattice index     =            0
     lattice parameter (alat)  =       7.7479  a.u.
     unit-cell volume          =     465.1020 (a.u.)^3
     number of atoms/cell      =            4
     number of atomic types    =            1
     number of electrons       =        12.00
     number of Kohn-Sham states=           10
     kinetic-energy cutoff     =       5.0000  Ry
     charge density cutoff     =      40.0000  Ry
     convergence threshold     =      1.0E-07
     mixing beta               =       0.5000
     number of iterations used =            8  plain     mixing
     Exchange-correlation      =  SLA  PZ   NOGX NOGC ( 1  1  0  0 0 0)

     celldm(1)=   7.747877  celldm(2)=   0.000000  celldm(3)=   0.000000
     celldm(4)=   0.000000  celldm(5)=   0.000000  celldm(6)=   0.000000

     crystal axes: (cart. coord. in units of alat)
               a(1) = (   1.000000   0.000000   0.000000 )  
               a(2) = (   0.000000   1.000000   0.000000 )  
               a(3) = (   0.000000   0.000000   1.000000 )  

     reciprocal axes: (cart. coord. in units 2 pi/alat)
               b(1) = (  1.000000  0.000000  0.000000 )  
               b(2) = (  0.000000  1.000000  0.000000 )  
               b(3) = (  0.000000  0.000000  1.000000 )  


     PseudoPot. # 1 for Al read from file:
     /Users/simonbatzner1/QE/qe-6.0/pseudo/Al.pz-vbc.UPF
     MD5 check sum: 614279c88ff8d45c90147292d03ed420
     Pseudo is Norm-conserving, Zval =  3.0
     Generated by new atomic code, or converted to UPF format
     Using radial grid of  171 points,  2 beta functions with: 
                l(1) =   0
                l(2) =   1

     atomic species   valence    mass     pseudopotential
        Al             3.00    26.98154     Al( 1.00)

     No symmetry found



   Cartesian axes

     site n.     atom                  positions (alat units)
         1           Al  tau(   1) = (  -0.0188756  -0.0006878  -0.0269512  )
         2           Al  tau(   2) = (  -0.0004829   0.4721220   0.5274366  )
         3           Al  tau(   3) = (   0.5402488  -0.0075195   0.4997244  )
         4           Al  tau(   4) = (   0.4992829   0.5232780  -0.0092683  )

     number of k points=     1  Methfessel-Paxton smearing, width (Ry)=  0.0200
                       cart. coord. in units 2pi/alat
        k(    1) = (   0.0000000   0.0000000   0.0000000), wk =   2.0000000

     Dense  grid:     1935 G-vectors     FFT dimensions: (  15,  15,  15)

     Smooth grid:      739 G-vectors     FFT dimensions: (  12,  12,  12)

     Estimated max dynamical RAM per process >       1.14Mb

     Initial potential from superposition of free atoms

     starting charge   11.99177, renormalised to   12.00000
     Starting wfc are   16 randomized atomic wfcs

     total cpu time spent up to now is        0.0 secs

     Self-consistent Calculation

     iteration #  1     ecut=     5.00 Ry     beta=0.50
     Davidson diagonalization with overlap
     ethr =  1.00E-02,  avg # of iterations =  3.0

     Threshold (ethr) on eigenvalues was too large:
     Diagonalizing with lowered threshold

     Davidson diagonalization with overlap
     ethr =  7.11E-04,  avg # of iterations =  1.0

     total cpu time spent up to now is        0.0 secs

     total energy              =     -15.90132454 Ry
     Harris-Foulkes estimate   =     -15.92264459 Ry
     estimated scf accuracy    <       0.08605320 Ry

     iteration #  2     ecut=     5.00 Ry     beta=0.50
     Davidson diagonalization with overlap
     ethr =  7.17E-04,  avg # of iterations =  2.0

     total cpu time spent up to now is        0.0 secs

     total energy              =     -15.90662082 Ry
     Harris-Foulkes estimate   =     -15.91402594 Ry
     estimated scf accuracy    <       0.03017717 Ry

     iteration #  3     ecut=     5.00 Ry     beta=0.50
     Davidson diagonalization with overlap
     ethr =  2.51E-04,  avg # of iterations =  4.0

     total cpu time spent up to now is        0.0 secs

     total energy              =     -15.90995780 Ry
     Harris-Foulkes estimate   =     -15.91259040 Ry
     estimated scf accuracy    <       0.01402690 Ry

     iteration #  4     ecut=     5.00 Ry     beta=0.50
     Davidson diagonalization with overlap
     ethr =  1.17E-04,  avg # of iterations =  1.0

     total cpu time spent up to now is        0.0 secs

     total energy              =     -15.91132727 Ry
     Harris-Foulkes estimate   =     -15.91142366 Ry
     estimated scf accuracy    <       0.00104183 Ry

     iteration #  5     ecut=     5.00 Ry     beta=0.50
     Davidson diagonalization with overlap
     ethr =  8.68E-06,  avg # of iterations =  8.0

     total cpu time spent up to now is        0.0 secs

     total energy              =     -15.91139090 Ry
     Harris-Foulkes estimate   =     -15.91140470 Ry
     estimated scf accuracy    <       0.00004873 Ry

     iteration #  6     ecut=     5.00 Ry     beta=0.50
     Davidson diagonalization with overlap
     ethr =  4.06E-07,  avg # of iterations =  1.0

     total cpu time spent up to now is        0.0 secs

     total energy              =     -15.91139414 Ry
     Harris-Foulkes estimate   =     -15.91139662 Ry
     estimated scf accuracy    <       0.00000938 Ry

     iteration #  7     ecut=     5.00 Ry     beta=0.50
     Davidson diagonalization with overlap
     ethr =  7.82E-08,  avg # of iterations =  2.0

     total cpu time spent up to now is        0.1 secs

     total energy              =     -15.91139630 Ry
     Harris-Foulkes estimate   =     -15.91139675 Ry
     estimated scf accuracy    <       0.00000367 Ry

     iteration #  8     ecut=     5.00 Ry     beta=0.50
     Davidson diagonalization with overlap
     ethr =  3.06E-08,  avg # of iterations =  1.0

     total cpu time spent up to now is        0.1 secs

     total energy              =     -15.91139631 Ry
     Harris-Foulkes estimate   =     -15.91139661 Ry
     estimated scf accuracy    <       0.00000071 Ry

     iteration #  9     ecut=     5.00 Ry     beta=0.50
     Davidson diagonalization with overlap
     ethr =  5.94E-09,  avg # of iterations =  2.0

     total cpu time spent up to now is        0.1 secs

     End of self-consistent calculation

          k = 0.0000 0.0000 0.0000 (    81 PWs)   bands (ev):

    -2.8519   4.5113   4.5809   4.6025   6.3824   6.3963   6.4037  12.3396
    12.4567  12.5401

     the Fermi energy is     6.4490 ev

!    total energy              =     -15.91139642 Ry
     Harris-Foulkes estimate   =     -15.91139645 Ry
     estimated scf accuracy    <       0.00000008 Ry

     The total energy is the sum of the following terms:

     one-electron contribution =      11.55708130 Ry
     hartree contribution      =       0.08771211 Ry
     xc contribution           =      -6.33949385 Ry
     ewald contribution        =     -21.20181149 Ry
     smearing contrib. (-TS)   =      -0.01488448 Ry

     convergence has been achieved in   9 iterations

     Forces acting on atoms (Ry/au):

     atom    1 type  1   force =     0.00454855   -0.00219332    0.00722414
     atom    2 type  1   force =     0.00145458    0.00519562   -0.00519367
     atom    3 type  1   force =    -0.00597037   -0.00004656   -0.00354630
     atom    4 type  1   force =    -0.00003275   -0.00295573    0.00151583

     Total force =     0.013894     Total SCF correction =     0.000049

     Writing output data file Al.save

     init_run     :      0.01s CPU      0.01s WALL (       1 calls)
     electrons    :      0.03s CPU      0.04s WALL (       1 calls)
     forces       :      0.00s CPU      0.00s WALL (       1 calls)

     Called by init_run:
     wfcinit      :      0.00s CPU      0.00s WALL (       1 calls)
     potinit      :      0.00s CPU      0.00s WALL (       1 calls)

     Called by electrons:
     c_bands      :      0.02s CPU      0.03s WALL (      10 calls)
     sum_band     :      0.00s CPU      0.00s WALL (      10 calls)
     v_of_rho     :      0.00s CPU      0.00s WALL (      10 calls)
     mix_rho      :      0.00s CPU      0.00s WALL (      10 calls)

     Called by c_bands:
     init_us_2    :      0.00s CPU      0.00s WALL (      21 calls)
     cegterg      :      0.02s CPU      0.02s WALL (      10 calls)

     Called by sum_band:

     Called by *egterg:
     h_psi        :      0.01s CPU      0.01s WALL (      36 calls)
     g_psi        :      0.00s CPU      0.00s WALL (      25 calls)
     cdiaghg      :      0.01s CPU      0.01s WALL (      34 calls)

     Called by h_psi:
     h_psi:pot    :      0.01s CPU      0.01s WALL (      36 calls)
     h_psi:calbec :      0.00s CPU      0.00s WALL (      36 calls)
     vloc_psi     :      0.01s CPU      0.01s WALL (      36 calls)
     add_vuspsi   :      0.00s CPU      0.00s WALL (      36 calls)

     General routines
     calbec       :      0.00s CPU      0.00s WALL (      40 calls)
     fft          :      0.00s CPU      0.00s WALL (      71 calls)
     ffts         :      0.00s CPU      0.00s WALL (      20 calls)
     fftw         :      0.01s CPU      0.01s WALL (     610 calls)
     interpolate  :      0.00s CPU      0.00s WALL (      20 calls)
     davcio       :      0.00s CPU      0.00s WALL (       1 calls)


     PWSCF        :     0.09s CPU         0.10s WALL


   This run was terminated on:  12:32:42  21Jun2018            

=------------------------------------------------------------------------------=
   JOB DONE.
=------------------------------------------------------------------------------=
